# vtk DataFile Version 5.1
vtk output
ASCII
DATASET POLYDATA
POINTS 1065 double
89.016081728 33.796284394 28.742052775 89.125875738 35.380830914 29.262266483 87.801914811 35.120968806 30.111375527 
87.532541551 33.725640052 29.245014681 89.235281015 36.974586289 29.753034221 88.034663948 36.645255196 30.835107463 
89.340993657 38.577248503 30.21452901 88.228561657 38.246755738 31.45090888 89.428201995 40.197262464 30.616292841 
88.321980594 39.920402669 31.872926116 89.468216288 41.841926379 30.901820173 88.302663551 41.642611528 32.119841348 
89.491516439 43.493028519 31.159763483 88.215917165 43.362682003 32.219467146 89.512668684 45.140653276 31.439674088 
88.072804454 45.043729386 32.157701509 89.413025088 46.799465442 31.38541973 87.885548847 46.66493108 31.855883329 
89.243566742 48.349693379 31.002926187 87.700658322 48.216694794 31.388444907 88.957020684 49.591240916 29.921299739 
87.460941747 49.643978907 30.608046766 88.695740397 51.012662378 29.110394594 87.134252237 50.933280229 29.617037796 
88.429269015 52.401281116 28.293374926 86.792860915 52.101522061 28.525603198 88.090921527 53.296389833 26.92305888 
86.445961734 53.104117264 27.249788903 87.727343062 54.014805099 25.46555044 86.10336485 53.988938312 25.885165788 
87.331924269 54.634178598 23.964965677 85.740786932 54.763913935 24.452218493 86.853323698 55.227529774 22.477571788 
85.313895462 55.25334219 22.928078202 86.490630831 55.749927276 20.934037917 84.90471247 55.553198478 21.365418544 
86.135217309 56.021794251 19.355961188 84.511883593 55.696392849 19.798380606 85.726619581 55.853551472 17.74406573 
84.123376352 55.645755558 18.194781772 85.262969558 55.95684206 16.14333393 83.682977331 55.705866548 16.596592735 
84.833463326 55.749669619 14.573496553 83.243122562 55.64582422 15.023916455 84.427434691 55.284317486 13.024650799 
82.807378362 55.47587596 13.454257561 83.949410891 55.095313626 11.434293767 82.350133248 55.301309786 11.887274225 
83.44368104 54.917977943 9.851350204 81.87653721 54.998473716 10.339199789 82.922237475 54.747259961 8.2726112508 
81.416249629 54.555814816 8.8512611611 82.391696789 54.222930938 6.7840217618 80.979684097 53.875122846 7.451569062 
81.859710693 53.642417908 5.3097558022 80.51344042 53.184926393 6.0777029196 81.489071455 52.601985072 4.0553273381 
80.141065343 52.207355999 4.8552967848 81.133980027 51.5405198 2.8259598534 79.763817274 51.212710905 3.6671034719 
81.126326276 50.009055205 2.1566151592 79.588628581 49.838295784 2.8149232442 81.106254818 48.471301931 1.507065688 
79.382007883 48.447228288 1.9998074644 80.949151391 46.864151777 1.0759605973 79.255883373 46.824204908 1.5514201307 
80.801203482 45.25169363 0.67709755243 79.104706819 45.207813136 1.153331749 80.752345055 43.581787475 0.62718771839 
79.016185754 43.520571906 0.99030910005 80.689458749 41.91496455 0.62015783732 78.904465075 41.816962455 0.87497504857 
80.550005247 40.264970559 0.84717601737 78.831487685 40.111370287 0.98140998945 80.489184571 38.629156766 1.1249344559 
78.851637648 38.347979556 1.2078230351 80.750741472 37.051478716 1.6107169789 79.076940191 36.822625372 1.888624985 
81.007721863 35.567800921 2.2703322437 79.35262033 35.349348713 2.7055669119 81.254040233 34.303118141 3.3349304927 
79.660811365 34.107146938 3.7699462767 81.56660279 33.033646522 4.3722473729 80.024036867 32.905822253 4.86667008 
81.98433435 31.756572159 5.3662524629 80.445036515 31.772944605 5.9856630684 82.471297227 30.696573862 6.537997545 
80.924997944 30.763632146 7.201316684 83.007795139 29.791893579 7.8369156636 81.444347863 29.886021396 8.4860056366 
83.592208443 29.269687829 9.2965385282 82.029170699 29.272372707 9.89898517 84.189083372 28.863665833 10.801861902 
82.614227543 28.78907142 11.354805269 84.719481377 29.127414672 12.364737204 83.191257388 28.721445264 12.877412749 
85.240501213 29.341649195 13.935027544 83.708754094 28.729884234 14.42929306 85.724310356 29.359420862 15.534739263 
84.185187015 28.688297819 16.007108709 86.170218462 29.227467778 17.13778741 84.583418212 28.761911588 17.612813359 
86.556738831 29.248557122 18.74373722 84.958943297 28.925762989 19.229259118 86.874873748 29.570373397 20.35226836 
85.325655692 29.214561894 20.841946123 87.324188745 29.74256142 21.952872003 85.721427365 29.67685367 22.37969603 
87.736402141 30.120629331 23.51952996 86.135735801 30.021274572 23.961856219 88.094971564 30.746644851 24.993358743 
86.536662907 30.514938399 25.545793274 88.311459059 31.940349575 26.142996468 86.909550485 31.408954358 26.908400856 
88.660384579 32.862111296 27.474839466 87.229434257 32.533469759 28.135360456 54.531734467 50.756996155 17.695575714 
54.753209485 51.315262274 19.283569954 56.141355735 51.911993696 18.942590583 56.006726294 51.358366484 17.308799439 
55.030120908 51.606517602 20.921909755 56.394062172 52.154486603 20.639393559 55.280377282 51.672410385 22.593514958 
56.675068571 52.172751731 22.327281145 55.447472949 51.561246589 24.278764731 56.940546949 52.008414047 24.006433729 
55.703349671 51.320426788 25.939779745 57.258754343 51.657315834 25.649483539 56.084073847 50.691040492 27.456220787 
57.631995442 51.160031967 27.227216813 56.507135703 50.084116269 28.980683752 58.056641802 50.527548849 28.753252078 
56.938458152 49.439785428 30.477261962 58.484351579 49.80790995 30.241849565 57.353444436 48.517410269 31.840107567 
58.90078359 48.886578256 31.633035132 57.678597449 47.491483107 33.153190552 59.288108599 47.723723437 32.766368843 
58.106091781 46.215760063 34.174362741 59.643632793 46.342872531 33.684083685 58.35793892 44.735845625 34.923285816 
59.922165619 44.868334733 34.453522634 58.555624746 43.143435885 35.463866641 60.142526105 43.30057231 35.032518824 
58.828811689 41.535358124 35.926255784 60.346035512 41.694740792 35.473792966 58.995520506 39.959724274 36.536193559 
60.473405801 40.086814507 35.777007987 59.032103399 38.273049366 36.607595058 60.526097373 38.444622328 35.840174423 
59.015939211 36.589004378 36.451311256 60.502186257 36.815581889 35.64898053 58.982751809 34.918523462 36.153266434 
60.499382563 35.203637703 35.394869273 58.976966913 33.260774404 35.78683425 60.611628095 33.633110247 35.182084112 
59.018343044 31.764073507 35.006095511 60.618609399 32.18393361 34.36671979 59.078543749 30.47832947 33.947768194 
60.67608313 30.916312086 33.357399847 59.153890835 29.437595045 32.608502491 60.770732176 29.806705004 32.165787947 
59.466466667 28.258729876 31.428172906 60.958800784 28.615521773 31.023291944 59.587761115 27.161940412 30.160988231 
61.06180346 27.509667849 29.804968363 59.493151253 26.15852278 28.794737896 61.064893144 26.539584108 28.46814677 
59.390063865 25.572966478 27.205060155 60.963391372 25.944110558 26.911874901 59.241296903 25.258046508 25.56655197 
60.808050387 25.597665492 25.287973808 59.046467431 25.212957794 23.880596326 60.597386921 25.5484792 23.636872384 
58.699495597 25.526947767 22.24863235 60.297969225 25.876178376 22.016752706 58.320855366 26.107030011 20.723227252 
59.949790448 26.414045508 20.456103036 57.90964378 26.94094354 19.303974267 59.56163056 27.176824116 18.99759365 
57.435816366 27.960672996 18.031937567 59.108907737 28.028397617 17.583295458 56.952592984 29.13971188 16.920259334 
58.594262504 29.077477656 16.301203259 56.450994391 30.369590773 15.863457074 58.019442749 30.319490842 15.204259848 
55.933642051 31.604144804 14.826226384 57.478452017 31.659582021 14.235932783 55.441573679 32.995041827 13.986159638 
56.9776662 33.100901173 13.420815453 54.996940571 34.527974391 13.41037554 56.518007416 34.619062615 12.756217867 
54.580858421 36.087766051 12.885590304 56.160964051 36.230791536 12.282090702 54.320352637 37.709469305 12.501528973 
55.920642025 37.889891078 11.953883944 54.250350694 39.386931592 12.300599163 55.802199836 39.580080278 11.783042289 
54.350725302 41.081735556 12.302152216 55.747012972 41.282098307 11.769646441 54.157708275 42.755638721 12.489092965 
55.676048647 42.966141868 11.996960853 54.125155812 44.400987232 12.85081437 55.631018595 44.635545451 12.296056102 
54.240484869 46.021761319 13.341444539 55.657684608 46.277997561 12.755604355 54.415588993 47.625012307 13.871880926 
55.713582191 47.884984289 13.353216594 54.554843907 48.949805646 14.883389759 55.835365622 49.285613624 14.294798178 
54.603389742 50.000476838 16.177358999 56.001479176 50.510225022 15.643410647 86.653954519 36.348777039 31.770478522 
86.370437908 34.848130198 30.876948068 86.893134406 37.964897428 32.52133186 87.056401246 39.656308377 33.060263886 
87.098383798 41.454617561 33.358744784 87.075818395 43.293706745 33.488176652 86.831882383 45.030631822 33.267200363 
86.576372899 46.699335423 32.821491001 86.270771525 48.269112594 32.170355393 85.982813089 49.747702419 31.362422885 
85.62573071 51.064026178 30.309804667 85.274455415 52.273425579 29.153100068 84.91575571 53.327756664 27.858867758 
84.551971627 54.243835179 26.456278567 84.173379561 55.0210173 24.977662275 83.777062949 55.558786915 23.430831921 
83.364099263 55.86951419 21.829822959 82.958444836 56.009626811 20.220692276 82.51326615 55.894203331 18.629839389 
82.078212172 55.822716908 17.035630026 81.643967686 55.729046594 15.459757211 81.204466189 55.513846771 13.900435639 
80.760661579 55.315379297 12.34631818 80.319291891 55.021642718 10.815001411 79.895191869 54.50793499 9.3657644642 
79.487148275 53.78334822 8.0048951533 79.085675276 52.948979979 6.7250362456 78.710182727 51.98859753 5.5305738263 
78.321860846 50.984814836 4.3809760754 78.084073546 49.659882925 3.5124942006 77.817332481 48.296486858 2.7166377727 
77.661410311 46.71648393 2.236437185 77.491343903 45.116290685 1.8479596614 77.37796473 43.445929086 1.6534219084 
77.22484882 41.769698317 1.4718187929 77.1846572 40.036739225 1.5703690656 77.205314189 38.242370448 1.7765650485 
77.44966627 36.731063152 2.4972963388 77.734774048 35.26817056 3.3288206786 78.084910275 34.01549891 4.3508366984 
[...]
POINT_DATA 1065
FIELD FieldData 21
Circ_Strain_Pt 1 1065 double
0.94677013066 0.9752015211 0.99620852533 0.99442538544 0.99175449511 0.99834137228 0.99949464784 0.99879698645 0.99919210809 
0.99923638623 0.99636765567 0.99833091332 0.99365999326 0.99732718125 0.99286438511 0.9964874024 0.97070818705 0.99371597823 
0.95248457711 0.99145515211 0.95876461027 0.99517773898 0.96894428731 0.99690158374 0.98112594765 0.99777433936 0.99449238091 
0.99748254475 0.99895896475 0.99729901684 0.9981106231 0.99764809482 0.99448639799 0.99840400066 0.98981124869 0.99764310532 
0.98768996903 0.99651283025 0.99108322849 0.99581181648 0.98594601525 0.99572125779 0.9851009075 0.99552836482 0.98806701666 
0.99642958657 0.98677077279 0.99756307219 0.98527960166 0.99687871385 0.98367787594 0.9961331331 0.98800454127 0.99547451695 
0.99327314767 0.99436901999 0.99136866628 0.99309326889 0.98970169302 0.99146958706 0.99334215772 0.99381482388 0.99671356368 
0.99653258531 0.99711585209 0.9976603119 0.99757608429 0.99854557214 0.99866343802 0.99819120219 0.99901099185 0.99662710297 
0.99532055785 0.99429721018 0.99200293073 0.99314488199 0.99021373052 0.99378983697 0.98971001043 0.99517689898 0.99220111 
0.99637916557 0.99347252117 0.99751962247 0.99280755999 0.99753853731 0.99316496295 0.99703486029 0.99425386788 0.99648140648 
0.99089958404 0.99427196407 0.98644500722 0.9908045624 0.99212491128 0.99479389429 0.99649193212 0.99882839869 0.99564969607 
0.9989217793 0.99400600545 0.99838484993 0.99371556456 0.99774967225 0.99578012575 0.99737539104 0.99488268256 0.99317514306 
0.9910315322 0 0.98427266108 0.98847192749 0.97225246652 0 0.95671907481 0 0.99601097667 
0.99638539595 0.99790139718 0.99841501557 0.99692797522 0.99729889498 0.99796126881 0.99816140267 0.99918939309 0.99827259714 
0.99433261112 0.99773385153 0.99293812778 0.99843205794 0.99394964747 0.99865823255 0.99606890453 0.99774782484 0.99760697517 
0.99626018247 0.99792968701 0.9942267785 0.99689478063 0.99627808866 0.99618076489 0.99837647871 0.99541708355 0.99890762333 
0.99394972537 0.99670616062 0.99211465611 0.99649265646 0.99478743468 0.99645267251 0.99731957562 0.99525982589 0.99682290384 
0.99178256892 0.98894423378 0.98797115628 0.98913276583 0.99007794495 0.98896417786 0.99315409689 0.98667245137 0.99498176186 
0.9919553235 0.99460121137 0.99536779589 0.99564664458 0.99656342064 0.99622289099 0.99542092054 0.99484042703 0.99543654421 
0.99529906012 0.99664228249 0.99739740012 0.9946519595 0.99602140052 0.99418782501 0.99596916561 0.99504225312 0.99768209227 
0.99463867305 0.99876582625 0.99557581718 0.99880676825 0.99716411132 0.99857298534 0.99856212271 0.99876357596 0.99881303127 
0.99935803029 0.99889190572 0.99836419907 0.99892834415 0.99693645352 0.99856121832 0.99731488212 0.9981502161 0.99837191676 
0.9986877924 0.99883252796 0.99828678964 0.99887389576 0.99817922009 0.99870757252 0.99730670418 0.99744833938 0.99272538309 
0.99525280773 0.99169950461 0.99544125286 0.99291346429 0.99704409984 0.99527445414 0.99305119826 0.99828092986 0.99706702881 
0.99533613388 0.99503878441 0.99701730172 0.99797284496 0.9979625076 0.99765691027 0.99781784687 0.99857796841 0.99888597089 
0.99821469114 0.99803781047 0.99755655902 0.9970570968 0.99667487494 0.99763142675 0.99766391215 0.99761586428 0.99817035653 
0.99800945376 0.99755254538 0.99689585941 0.99663595751 0.99667051916 0.99670437065 0.99645598082 0.9956620169 0.9958103639 
0.99691279334 0.99797203854 0.99846797075 0.99544901381 0.99294173139 0.99203478063 0.99441999557 0.99740038418 0.99839643757 
0.99929521155 0.99908433009 0.99871392667 0.99741997869 0.99650532422 0.99628149236 0.99716733805 0.99848740218 0.99844039163 
0.99685872199 0.99618516453 0.99626486393 0.99254118224 0.99188583785 0.99453369471 0.99643189778 0.99649756528 0.99439641617 
0.99681044625 0.99682549947 0.99751767336 0.99889286365 0.99837272092 0.99719762636 0.99740759697 0.99877960519 0.99759169354 
0.99409661327 0.99558343082 0.99901276153 0.99876440344 0.99807076546 0.99779387162 0.99707009116 0.99458019106 0.99098429356 
0.99021145397 0.99376297883 0.99675891944 0.99513714027 0.99474033058 0.99446734968 0.99353391396 0.99128934469 0.99142587312 
0.99601817703 0.99804994537 0.99789888238 0.99848240002 0.99824886554 0.9978631825 0.99751613313 0.99794189355 0.99845107937 
0.99696560186 0.99706570936 0.99831599949 0.99925800523 0.99901300958 0.99861849644 0.99788894386 0.99631357256 0.99586462864 
0.99650811576 0.99729457964 0.99731613757 0.99666123487 0.99478220474 0.99829394378 0.99557839669 0.99363878883 0.99511327768 
0.99767653528 0.99807857513 0.99736813943 0.99803627795 0.99864667627 0.99820951181 0.99827676087 0.99852131583 0.99896394663 
0.99610714955 0.99546820994 0.99809021572 0.99949867017 0.99932992771 0.9984146205 0.99786616192 0.99743995539 0.99682510332 
0.99655716712 0.99673383826 0.9969396246 0.99625361506 0.99642148595 0.99700842012 0.99778953717 0.99854158086 0.99864446288 
0.99838402823 0.99536102304 0.99311306137 0.99490728904 0.99632676509 0.99710674427 0.99728761365 0.99846272148 0.99904785563 
0.99906711307 0.99778835726 0.99678981898 0.99576920904 0.99651304545 0.99682158648 0.99493969904 0.9947402108 0.99532817249 
0.99539553546 0.99577139416 0.9963007524 0.99713074655 0.9980901528 0.99540365255 0.99324288583 0.99706000296 0.99619666149 
0.99809589994 0.99878472022 0.99641610194 0.99529836636 0.99683666267 0.99840351358 0.99162974576 0.99218909035 0.9986145989 
0.99873849207 0.99851234817 0.99847567735 0.99759377576 0.99561321157 0.99264942349 0.98925850187 0.99387444228 0.99730599819 
0.99793201231 0.99750107615 0.99692123902 0.99685879215 0.99144152061 0.99001191083 0.99164439436 0.99577189606 0.99652999477 
0.9954642025 0.99673657623 0.99785689154 0.99751543645 0.99719960057 0.99801032773 0.99660795846 0.99741651951 0.99799274595 
0.99832054692 0.99900221972 0.99904928177 0.99868720007 0.99779451996 0.99584148871 0.99452557862 0.99394014016 0.99679539854 
0.99661541982 0.99650574744 0.99440372423 0.9964185196 0.99738955601 0.99463121081 0.99347815837 0.99726937707 0.99760602919 
0.99703841307 0.99601870851 0.99750413797 0.9992228425 0.99882569701 0.99917944363 0.99931029967 0.9975911689 0.99580686589 
0.99491215486 0.99656956694 0.99854632891 0.99987709886 0.99961823145 0.99876031162 0.9977896625 0.99604540166 0.99486856009 
0.99560158091 0.99682356242 0.99732565494 0.99736243429 0.99487966002 0.99469161302 0.99628858237 0.99799865645 0.99871500697 
0.99712152609 0.99550880892 0.99600873421 0.99635458724 0.99453375651 0.99495937384 0.99701893133 0.99894646044 0.99862597011 
0.99691961877 0.99555296445 0.99424385884 0.99479496204 0.99554251645 0.99534572304 0.99617262885 0.99672572101 0.99558378444 
0.99655972343 0.99638654875 0.99575640125 0.99638034711 0.99523068137 0.99408085859 0.99550654333 0.99548735341 0.99271683152 
0.99673856958 0.99755596699 0.99835312857 0.99838276686 0.99827371704 0.99842276451 0.99850927463 0.99815300268 0.99690536402 
0.9964853246 0.99305767359 0.99316332045 0.9978323581 0.99857624571 0.99884067116 0.99819181323 0.9979329596 0.99545905899 
0.99288240944 0.99306882387 0.99556472524 0.99815406309 0.99813016394 0.99796994357 0.99697809916 0.99605048481 0.99561938888 
0.99520331983 0.99576907509 0.99396368521 0.99263957077 0.99625258529 0.99753028125 0.9978462068 0.99784067835 0.99857866805 
0.99824694561 0.99708407505 0.99773255678 0.9979700532 0.99797365611 0.99871041859 0.99934760406 0.99932634863 0.99786018507 
0.99431057928 0.99136116757 0.98865693122 0.98468220465 0.98614810833 0.99506241757 0.9965785784 0.99414537337 0.99608658765 
0.99727452081 0.9963682677 0.99555497521 0.99645664212 0.99592850521 0.99301949268 0.99435909904 0.99780565468 0.99892596502 
0.99919453799 0.99949828257 0.9996829882 0.9974950653 0.99585095692 0.99709111051 0.99915902958 0.99965807903 0.99964879228 
0.99833466858 0.99558501855 0.99361415684 0.9922070241 0.99437882618 0.99602350686 0.99558261399 0.99433065042 0.99301174059 
0.99619220372 0.99828900872 0.99907250838 0.99843091833 0.99786823135 0.9967396825 0.99692417532 0.99742839232 0.99542431387 
0.99547943469 0.99765774498 0.99874386509 0.99869542805 0.998970029 0.99864282312 0.9977440753 0.99547428386 0.99474014308 
0.99728004276 0.99468267795 0.9904417727 0.99117121263 0.99580257824 0.9966073973 0.9964467138 0.99777865237 0.99816884234 
0.99718022114 0.99598434277 0.99639471334 0.99528895671 0.9963676149 0.99658660978 0.99756616971 0.9969054555 0.99642260022 
0.99777163532 0.99928752979 0.99889818853 0.99643662573 0.99642701822 0.99695158135 0.99796848638 0.99830787713 0.99836500089 
0.99804274929 0.99815974625 0.99616550702 0.99455809293 0.99441471307 0.99584831401 0.9979172138 0.99835530364 0.99911934178 
0.99887652351 0.99846173739 0.99780467711 0.99606755638 0.99161252957 0.98838263629 0.98752186277 0.99211053128 0.99576324067 
0.99754660177 0.99746569066 0.99644221241 0.99882539664 0.9995694953 0.99917818508 0.99853534008 0.99745511933 0.99790911755 
0.99859752322 0.99898656228 0.99602163901 0.99033181204 0.98011848114 0.97219448496 0.96809039543 0.97618183392 0.99267307829 
0.99570953977 0.99460842631 0.99637164082 0.99740787399 0.99624397995 0.99785963834 0.99621011728 0.99839289852 0.99719147267 
0.99322739945 0.99106738998 0.99340025603 0.99760279897 0.99891074985 0.99914336137 0.99922008541 0.99725174141 0.99605400365 
0.99652369417 0.99782512738 0.99857096242 0.9989178068 0.9994277795 0.99955928073 0.99953319017 0.9956460166 0.99095625392 
0.99231153651 0.99603441852 0.99620365599 0.9942778502 0.99523409099 0.9963064796 0.99804603785 0.99916453095 0.99924487608 
0.99903336546 0.99861369578 0.99817283017 0.99669818613 0.99542537827 0.99558244394 0.99702178126 0.99842470529 0.99637919664 
0.99704198565 0.99786336834 0.99663012018 0.99598039032 0.99596886852 0.99712493199 0.9952942004 0.98973688254 0.99129071554 
0.99688063886 0.99727557547 0.99738109773 0.99781972994 0.99756837353 0.99645372865 0.99679829975 0.99525586423 0.99438803428 
0.99441302354 0.99450891115 0.99545698241 0.99568310213 0.99616587217 0.99752669071 0.99909380148 0.99943061746 0.9984748759 
0.99754425702 0.99841723978 0.99838262622 0.99814282024 0.9980581529 0.99739006888 0.99514579745 0.99395525176 0.99400657201 
0.99646227619 0.99673883114 0.99804542098 0.99854814843 0.99889163135 0.99878152244 0.99841172455 0.99707272319 0.99078412009 
0.98787362269 0.99125007042 0.99768932617 0.99783545191 0.99739124133 0.99565335104 0.99508360704 0.9948059916 0.99569567877 
0.99651847796 0.99783556619 0.99900024254 0.99971530082 0.99898309849 0.99754739722 0.99645583734 0.99729975635 0.99791512549 
0.99632531246 0.99543004344 0.99060107973 0.9786102433 0.97051538392 0.98012944375 0.98640863703 0.9914079817 0.99517174858 
0.99529244903 0.99581661868 0.99472167293 0.99803552997 0.99774725204 0.99653782203 0.99758283689 0.99630495302 0.99444640013 
0.99324473437 0.99629302521 0.99867000906 0.99827411144 0.99859081954 0.99581516901 0.99180015472 0.99370014392 0.99723852149 
0.99920268569 0.99893473503 0.99839878316 0.99677100517 0.99482139056 0.99571174545 0.99744937153 0.99866636849 0.99918518832 
0.9990812916 0.99905063081 0.99779429263 0.99414241973 0.99181259817 0.99265332026 0.99603748801 0.99583275409 0.99563562448 
0.99558408943 0.99911769341 0.9992973964 0.99943540762 0.99937028498 0.99931231232 0.99931733519 0.99922091798 0.99880034858 
0.99703668857 0.99651281967 0.99770492714 0.99800372039 0.99686350644 0.9962906095 0.99368875085 0.99735886597 0.99737979774 
0.99616207675 0.99707663057 0.99688627466 0.99349409154 0.99727503005 0.99448323204 0.99509998425 0.99385051723 0.99527270301 
0.99438380239 0.99534170943 0.99779253504 0.99891379288 0.99888708655 0.9991905448 0.99917376115 0.99877456056 0.99834698381 
0.99741420495 0.99751880293 0.99777207624 0.99692000292 0.99719471085 0.99780780025 0.9971590998 0.99756970647 0.99571875588 
0.99544159515 0.99749964522 0.99818941268 0.99855128195 0.99849062924 0.9980163641 0.9980127256 0.99815548739 0.99895116267 
0.99481979075 0.99661278824 0.99565537147 0.99676487631 0.99567201198 0.99552384299 0.99560117286 0.99610874416 0.99515263241 
0.99446110281 0.99636195761 0.99814871421 0.99925693076 0.99937449249 0.99928343433 0.99890407484 0.99801486341 0.99780756597 
0.99803075178 0.99850193615 0.99732123497 0.98215489781 0.99071805703 0.99695111048 0.99734506368 0.99672371678 0.99624062529 
0.98262148187 0.97821099371 0.98694655556 0.98957429294 0.99170539634 0.99426702926 0.99356324388 0.99560523793 0.99585086377 
0.99547779198 0.99524702327 0.99566318557 0.99638198296 0.99707448228 0.99736462885 0.99824341608 0.99868875547 0.99878552198 
0.99885053627 0.99818480238 0.9950481776 0.99376194745 0.99389045399 0.99547678665 0.99692125572 0.99727545166 0.99559832463 
0.99593953522 0.99724280099 0.99723739659 0.99839665767 0.99903859094 0.99817372849 0.99808209137 0.99748326427 0.99775532149 
0.99801868802 0.99780137767 0.99787182773 0.99787020366 0.99762598492 0.99710107798 0.99549563899 0.99441960663 0.99496748205 
0.9934873451 0.99461959862 0.99386739988 0.99549394522 0.99708214266 0.99675668509 0.99581088604 0.99580764348 0.99470599554 
0.99360013944 0.99309894562 0.99540929827 0.99800219479 0.99742992784 0.99847778065 0.99878340685 0.99903569175 0.99923041132 
0.99897408062 0.99865571161 0.99812837776 0.99755320204 0.99677465615 0.99630434367 0.9946891822 0.99504007876 0.99568136953 
0.98460183951 0.99089584213 0.98758468047 0.98824076671 0.9904852028 0.99243708743 0.99536392344 0.99300651002 0.99788940492 
0.9964854162 0.9971549607 0.99805366088 0.99757085121 0.99839678162 0.99837964943 0.99725507507 0.99657886975 0.99716006892 
0.99458780473 0.99275782929 0.99490423892 0.99676325649 0.99754194648 0.99796224954 0.99621548315 0.99408503166 0.99358555203 
0.99469656132 0.9967450013 0.99935586351 0.99788314375 0.99542639127 0.99526166949 0.99594702048 0.99821422168 0.99853423843 
0.99893855524 0.99890204973 0.9982974767 0.99747770009 0.99497037629 0.99178841753 0.99224264452 0.99518587308 0.9949868114 
0.99341736585 0.99400702213 0.99608272901 0.99916999772 0.99956740845 0.99944723557 0.99925544835 0.99879733259 0.99764256356 
0.99638943202 0.99604882128 0.99685255186 0.99733910655 0.9976061175 0.99740589481 0.99753968711 0.99855415889 0.99977319736 
0.99805007191 0.99656283067 0.99727483972 0.99356797784 0.99308697645 0.9935966913 0.99581447275 0.9979531653 0.9972083814 
0.99747153803 0.99774146865 0.99728320521 0.9972414822 0.99693415126 0.99691649487 0.9976374534 0.99787788404 0.9971387158 
0.99831632825 0.99485339253 0.99636501849 0.99174655686 0.99105037558 0.99801887554 0.99433237758 0.99411952106 0.99704562773 
0.99815900297 0.99745740086 0.99692220156 0.99570091961 0.99410571003 0.99925353188 0.99913328365 0.99780567243 0.99661316331 
0.99653747504 0.9970766325 0.99760869185 0.99783099056 0.99300127799 0.99459539486 0.99234792159 0.99140091303 0.97880936347 
0.99582801666 0.99723969714 0.99350179443 
Circumferential 3 1065 double
0.1565427292 0.52133483601 0.81519975693 0.030436262037 0.80577877032 0.51815605552 0.039828828428 0.83533427515 0.54340409 
0.054688469171 0.77703972529 0.62359202269 -0.029302556681 0.91603653438 0.3997376656 0.022142080718 0.89259545747 0.4446519286 
-0.042140291909 0.92503699116 0.37287254211 0.018745286623 0.93951371601 0.33980672109 -0.022571136133 0.96599744033 0.24740757307 
-0.014202879255 0.97247107797 0.22307594685 0.0035093324086 0.98442378679 0.16860181961 -0.04561974589 0.98994537363 0.10373853006 
0.0076342564511 0.99329473868 0.095007639852 -0.078358456675 0.99411303561 -0.012854359926 -0.036634428796 0.99797975775 0.00083293215767 
-0.11763679227 0.98346137933 -0.12393083548 -0.11858873853 0.98857718204 -0.05090281621 -0.15437415041 0.9417563102 -0.26937662783 
-0.19504925873 0.94982383775 -0.15928200228 -0.19013436565 0.88674616296 -0.41563711328 -0.23229021922 0.83851311078 -0.4519590415 
-0.22687486556 0.81955110891 -0.52029145287 -0.21730951702 0.75130008938 -0.61478938831 -0.2273369645 0.73224813191 -0.63162621568 
-0.1881843911 0.65934776706 -0.72131208098 -0.21411340028 0.64070299394 -0.73630814047 -0.19866794802 0.4997700291 -0.83373103143 
-0.22874845861 0.56037448916 -0.79358609057 -0.2256585217 0.40336237917 -0.88508154609 -0.23453875337 0.46661386162 -0.84964276837 
-0.24613558168 0.34607639628 -0.904874232 -0.23957321446 0.35969266853 -0.90057159134 -0.19825044704 0.31476588679 -0.92767448227 
-0.23484166527 0.24355548069 -0.93862192146 -0.18869819711 0.17062547869 -0.95847840949 -0.21274524532 0.11358920193 -0.96534472596 
-0.19239139083 0.046729511953 -0.98012428912 -0.18942888506 0.0074450962093 -0.98176870718 -0.19931354544 0.027102693189 -0.97954113089 
-0.19767875494 0.00031656739879 -0.98022433694 -0.21710438574 -0.019291642482 -0.97534116786 -0.20095740982 -0.033835798828 -0.97826366352 
-0.18574731196 -0.1119096156 -0.97071534646 -0.16898532185 -0.093705187692 -0.97998148246 -0.10569776721 -0.23373613032 -0.96534570426 
-0.13896624871 -0.12525217536 -0.98184030952 -0.006501293754 -0.28367308888 -0.95623306964 -0.1215911121 -0.17191199229 -0.97465590244 
-0.058654401169 -0.2822498483 -0.94993944168 -0.1409615191 -0.2494260178 -0.95487705822 -0.1966466651 -0.25169724942 -0.94524463647 
-0.16382634927 -0.34410356525 -0.9222564489 -0.22412480942 -0.37835544079 -0.88459988641 -0.17781871698 -0.43809130386 -0.87549621497 
-0.23404375642 -0.52999229821 -0.81506544763 -0.18671435891 -0.53676128516 -0.82183042189 -0.1819763971 -0.65505335191 -0.71452749105 
-0.14199182321 -0.65067164845 -0.72937703267 -0.12754747842 -0.77838198033 -0.61200567318 -0.087989276747 -0.77435314154 -0.62443927295 
-0.020346207822 -0.86299712874 -0.46515188366 -0.03236908802 -0.84514097625 -0.51447474312 0.078242458476 -0.94256606241 -0.32201967915 
0.022185457287 -0.91016660076 -0.40805829447 0.081789266746 -0.96644898198 -0.21995594421 0.053910747193 -0.94785949911 -0.29933466261 
0.088589010418 -0.98801009653 -0.11677236353 0.07456259244 -0.97687314773 -0.19585363912 0.13059502418 -0.98444248272 -0.0014687914831 
0.097073393062 -0.98621953601 -0.11477878937 0.1613262201 -0.9792982295 0.1104369518 0.11988358519 -0.99102544679 -0.029881614501 
0.13051702121 -0.96554833651 0.20379662612 0.15201606483 -0.9768072211 0.097733599538 0.11705325489 -0.94133567581 0.30369098145 
0.18597421062 -0.94269769533 0.25868886208 0.17470199344 -0.87422793894 0.43037612004 0.22473649806 -0.87299496377 0.41156358116 
0.22024312976 -0.81409597019 0.53505165387 0.25399283056 -0.79952745856 0.53998563287 0.23757684527 -0.7702156475 0.58845078838 
0.26737651152 -0.74477541492 0.6078832363 0.25321914107 -0.71705344126 0.64568005436 0.27489307386 -0.69800909657 0.65899741272 
0.26617614578 -0.64915535455 0.70899002134 0.28895752555 -0.63368983247 0.7145822961 0.26607059754 -0.5372104794 0.7875559242 
0.29263889049 -0.55091700295 0.7775434511 0.25661878736 -0.39375010729 0.87703745649 0.289181294 -0.43668420818 0.84839132701 
0.21747176451 -0.22236444928 0.93534822308 0.27306521517 -0.30208128268 0.90608649244 0.16991342596 -0.046206990798 0.98431428857 
0.24831754522 -0.15164309544 0.95347136444 0.11411133789 -0.087716418274 0.98760284456 0.19133763973 -0.095152203321 0.97543407361 
0.083289238901 -0.12133895376 0.9885130035 0.15907082739 -0.0557459268 0.98519371417 0.15158271917 -0.12366788598 0.97998616062 
0.17366741866 -0.024638032891 0.98440075379 0.17020422624 -0.022865545944 0.98099067243 0.17827234066 0.049294904226 0.9809088415 
0.18491062513 0.083520043511 0.97811703996 0.17542980874 0.15580261036 0.96939012975 0.21571314604 0.1482179799 0.96510345148 
0.15881010987 0.22936393006 0.95997312014 0.19667533824 0.18465645751 0.96258808002 0.14996818708 0.24660829829 0.95687822185 
0.15696301117 0.32894536571 0.91710562893 0 0 0 0.12041802071 0.51446728867 0.84714179134 
0.13267960747 0.43020007139 0.8875313507 0.15144955348 0.60384320885 0.7797294177 0 0 0 