# vtk DataFile Version 5.1
vtk output
ASCII
DATASET POLYDATA
POINTS 1139 double
107.64433289 78.506881714 38.262866974 107.37670881 77.236504751 37.393891454 106.02529139 77.483424729 37.452098653 
106.28839935 78.75086834 38.353315351 107.15402342 75.885803515 36.653856768 105.77940219 76.10275865 36.738284165 
106.96529608 74.474405016 36.011256584 105.55853056 74.628453305 36.169304822 106.81367139 72.946410326 35.726011223 
105.37003629 73.090331717 35.793184225 106.71283156 71.409334254 35.53253543 105.23651856 71.511072996 35.545033804 
106.75987221 69.849151828 35.597471587 105.21620794 69.910996673 35.619395841 106.86288445 68.302271168 35.74414088 
105.31659562 68.30674916 35.778183172 107.05349839 66.776209234 36.018731534 105.48248109 66.722275912 36.037352448 
107.27137747 65.312045519 36.472789594 105.67473832 65.19824592 36.572310171 107.52126559 63.92054982 37.137540955 
105.88232746 63.74925192 37.278866276 107.8169795 62.690310406 38.021307877 106.15180139 62.431307759 38.201724427 
108.1480058 61.584331683 39.073843569 106.56311906 61.208691279 39.208430735 108.51480928 60.538206838 40.17390616 
107.0274307 60.114285636 40.30622367 108.91316324 59.542061247 41.306067302 107.5118339 59.151788618 41.493805052 
109.388592 58.665786879 42.50885966 108.01795596 58.348785474 42.754966764 109.92560906 58.027201922 43.821555784 
108.53819307 57.781851396 44.09414922 110.50174847 57.532899717 45.183684118 109.06340271 57.417846875 45.496635525 
111.09878143 57.165916346 46.577431967 109.574282 57.217172946 46.918337393 111.59047316 57.049783756 48.055725303 
110.01046278 57.086479181 48.356413013 111.94052062 57.239194131 49.553322803 110.36927184 57.329225133 49.823858191 
112.19487591 57.522125886 51.067000844 110.63193712 57.60878115 51.290766667 112.35978241 57.781579585 52.598695446 
110.78781928 57.898222199 52.768171944 112.37717307 58.200053651 54.102206227 110.83298481 58.363125882 54.2136049 
112.37183196 58.748071762 55.557485601 110.825791 58.897699217 55.651146299 112.35400728 59.46468012 56.945561057 
110.80635781 59.596861483 57.008849004 112.37875911 60.54262448 58.057988023 110.85020709 60.646044461 58.180663576 
112.42820799 61.716623929 59.083587877 110.90297987 61.811578654 59.217329188 112.54233277 62.992159297 59.978341355 
110.99237034 63.09382379 60.086144748 112.67124228 64.344272392 60.727855728 111.11189381 64.42969156 60.869869999 
112.81864795 65.792186627 61.295671425 111.2392751 65.848447576 61.484557926 112.95758586 67.265668258 61.792255908 
111.3787024 67.301641293 62.017531591 113.09133922 68.754804017 62.245227712 111.51364181 68.782460424 62.459237608 
113.18445969 70.286880812 62.526413771 111.61431761 70.306631713 62.739897978 113.25745193 71.830358893 62.719993958 
111.68823591 71.849144608 62.928873192 113.27370182 73.391473103 62.662923004 111.71901129 73.419742803 62.983357685 
113.27878523 74.944250747 62.509522765 111.70921773 75.008133315 62.915959041 113.27641044 76.491321729 62.29383371 
111.68978534 76.587792428 62.714505525 113.20924949 77.971201158 61.797804465 111.69171225 78.107526616 62.205894788 
113.12625011 79.372899167 61.152444765 111.66741361 79.54827725 61.521044623 113.01426057 80.631496546 60.233755639 
111.5670806 80.793470687 60.586317663 112.86513351 81.671856456 59.096768812 111.3969673 81.849381762 59.440738172 
112.69918371 82.612434849 57.860923316 111.19545498 82.748969212 58.172074844 112.49637032 83.163986087 56.413423165 
110.95442168 83.394438458 56.750879156 112.28449964 83.631238539 54.943546064 110.73523102 83.950453093 55.277546813 
112.05278528 83.913800089 53.424643121 110.51702611 84.185602072 53.73475798 111.82426745 83.905740564 51.892358037 
110.2930909 84.176156101 52.168733518 111.59914399 83.723758293 50.361022129 110.06528659 83.95852795 50.628422318 
111.39107177 83.220803303 48.896665288 109.84342572 83.650426265 49.109529948 111.1131687 82.779765558 47.425592044 
109.55836579 83.289652517 47.620274143 110.71346012 82.42989365 45.961991013 109.15447167 82.8695164 46.177812548 
110.17490794 82.146819637 44.524622979 108.66216955 82.456107097 44.753198866 109.58552147 81.711553381 43.144852851 
108.12117143 81.989921624 43.35818014 108.981455 81.22449548 41.789122373 107.57901716 81.420067081 41.99253223 
108.45123888 80.469928149 40.552582388 107.07497687 80.743620659 40.68146442 108.0109921 79.510518882 39.402547712 
106.62127495 79.800756747 39.499494693 83.211341858 82.719619751 41.748954773 83.275564112 83.636314296 43.024120763 
84.885892234 83.683459728 42.642336344 84.74359593 82.753924032 41.346717546 83.400366964 84.370428425 44.401013841 
84.978587532 84.431147208 44.073160516 83.529682501 84.883852451 45.868869019 85.078764247 84.956973575 45.598744201 
83.626285042 85.177640535 47.409926513 85.190634248 85.243784824 47.174433376 83.766458764 85.115623319 48.97294661 
85.337096067 85.268959644 48.771108639 83.945300937 85.001733951 50.528797345 85.51296056 85.191987842 50.359598272 
84.182311814 84.824095558 52.072420399 85.713817443 85.042723889 51.93215332 84.432631619 84.544654292 53.596890063 
85.935990586 84.727894786 53.475221035 84.689962899 84.211580728 55.111269243 86.144441742 84.346910059 54.989569035 
84.870596698 83.598581835 56.541182688 86.341699116 83.600541921 56.37460593 85.029184738 82.891037112 57.92590765 
86.495720008 82.792300626 57.714960927 85.109792995 81.750389696 59.004298798 86.581863126 81.666333372 58.795927629 
85.117668555 80.473054602 59.880994332 86.617201348 80.401715751 59.701395974 85.046506154 79.047182251 60.538509075 
86.607547736 79.012077142 60.431288079 84.950512314 77.524558915 60.914005009 86.513139348 77.489688931 60.893776863 
84.794374475 76.007002713 61.289236593 86.374981192 75.962852375 61.31361863 84.618617251 74.482305794 61.620150391 
86.21406007 74.4268828 61.63587357 84.478775472 72.933980892 61.851074367 86.086308726 72.883949186 61.82639167 
84.336164001 71.380132752 62.040070695 85.986978496 71.346484813 61.91033986 84.251305294 69.864817102 61.654035913 
85.907039091 69.8251127 61.682112375 84.173147413 68.323204743 61.366968925 85.832745374 68.332142085 61.336286612 
84.149372405 66.887229872 60.802547609 85.7903622 66.919319706 60.759737093 84.182652011 65.548023965 59.981012661 
85.785747575 65.567492363 60.018683435 84.24836303 64.237003024 59.11891578 85.815268732 64.281049536 59.134917297 
84.34065321 63.062214105 58.078793093 85.855931879 63.076071727 58.146318609 84.413183776 62.014856468 56.913118345 
85.914373081 62.009010072 56.996582032 84.488655833 61.198516139 55.595855348 85.980179731 61.048981282 55.737668438 
84.568902128 60.624806743 54.134802271 86.060160734 60.243755167 54.356610765 84.612149126 60.060273822 52.668536959 
86.124703162 59.795957911 52.77892434 84.569541096 59.758980056 51.133484634 86.047434431 59.578652762 51.16310762 
84.473977989 59.631510666 49.574899242 85.904561335 59.512576468 49.55642269 84.337585601 59.644692626 48.009100711 
85.735520579 59.569779262 47.967497614 84.111324239 59.84397447 46.466662006 85.566331136 59.88796965 46.432287703 
83.919558169 60.349436927 45.021365243 85.431634097 60.441762296 44.978407009 83.776761436 61.17924005 43.706256332 
85.356969936 61.253810084 43.629677977 83.728471901 62.324648118 42.630984196 85.366969949 62.413993469 42.595614904 
83.817509451 63.579477853 41.69234889 85.432362743 63.675373594 41.664782869 83.963378443 64.943109979 40.939956275 
85.499862657 64.999123575 40.834260105 84.031942584 66.400485624 40.388841682 85.506711648 66.432550418 40.201576773 
83.914255418 67.925558427 40.029751493 85.418654077 67.933236723 39.750218559 83.772790977 69.472897794 39.792622034 
85.286297303 69.487450017 39.522472994 83.501266918 71.015690748 39.746946828 85.103710226 71.050391669 39.411239494 
83.325456838 72.563138851 39.669209542 84.955321914 72.620166618 39.296546227 83.360463283 74.120065757 39.45647768 
84.866332577 74.175460678 39.104438025 83.254719725 75.671621685 39.235062018 84.759242811 75.72334133 38.930240085 
83.182289733 77.222460749 39.129035573 84.666516339 77.25752218 38.837219894 83.27020553 78.773547709 39.367576428 
84.653738068 78.764149493 39.084711604 83.212731113 80.242923622 39.893963789 84.632426263 80.211393747 39.586932637 
83.163865855 81.584013373 40.663300192 84.641280665 81.580601096 40.30954095 104.42228451 76.470068763 36.47229881 
104.69039971 77.938980683 37.172825397 104.12877297 74.905322392 36.011308848 103.88306051 73.299632286 35.690199871 
103.68833829 71.659204123 35.46433358 103.63510626 69.983420076 35.526247115 103.71987453 68.309030751 35.70884944 
103.890771 66.661131495 36.001962715 104.05661192 65.064794133 36.561451336 104.21980324 63.518463157 37.252993411 
104.4313675 62.077678076 38.278359018 104.97392479 60.790530462 39.417882568 105.55279989 59.712408333 40.591659138 
106.10202803 58.802114358 41.767780968 106.64077806 58.047964895 43.055227916 107.15715709 57.532445438 44.414290524 
107.64619102 57.28508405 45.836674315 108.11194201 57.15398026 47.257464881 108.52181967 57.203124047 48.683572025 
108.86997018 57.459542602 50.096115028 109.13717078 57.728528901 51.513017963 109.29601349 58.057311017 52.933225323 
109.34622366 58.602845957 54.288593897 109.32726088 59.214148443 55.643457019 109.27920188 59.89178702 56.987049697 
109.30416021 60.875803646 58.180639841 109.34578819 61.903999299 59.36268754 109.42328876 63.181521404 60.221378919 
109.52929428 64.498711087 61.035318011 109.65912422 65.891171824 61.71307965 109.80830769 67.320347116 62.305511517 
109.97067929 68.775235811 62.821354238 110.10276114 70.291655479 63.161018136 110.20831136 71.840694426 63.409297058 
110.19361548 73.425403428 63.366062165 110.13249956 75.014660139 63.287452538 110.06531347 76.693048429 63.080028931 
110.15508572 78.284037716 62.514639884 110.20520848 79.723072462 61.869811599 110.13567928 81.046467449 61.017875471 
[...]
POINT_DATA 1139
FIELD FieldData 21
Circ_Strain_Pt 1 1139 double
0.99551937584 0.99681720089 0.99698007366 0.99640269863 0.99732147439 0.99810067729 0.99722609844 0.9980993557 0.99768153605 
0.99711877679 0.99801515789 0.99682448471 0.9979746437 0.99758335549 0.99748366965 0.99758938007 0.99628767632 0.99641206585 
0.99560642947 0.9958339506 0.99552949088 0.99586973263 0.99672392244 0.99690348102 0.99889804501 0.99818063909 0.99869119992 
0.99814244426 0.99806529038 0.99676816379 0.99774842866 0.99698813885 0.99842140472 0.99793158797 0.998423276 0.99808243905 
0.99704942021 0.99747719828 0.99557238697 0.99547890731 0.9972548241 0.99724909201 0.99890649613 0.99843600911 0.99840252309 
0.99700101418 0.99709249732 0.99642169998 0.99564646889 0.99600751712 0.99411481199 0.99574660948 0.996259345 0.99636617207 
0.99841097729 0.99827516136 0.99777326253 0.9982830634 0.9979109605 0.9985829293 0.9990187281 0.99910717415 0.99894108013 
0.99923135732 0.99813763868 0.99906959335 0.99834443277 0.99840494969 0.99865606115 0.99734022151 0.99868188051 0.99748342346 
0.99818696356 0.99759466511 0.99735474357 0.99735429729 0.99492801989 0.99633875252 0.99390734084 0.99555510797 0.99546023723 
0.99634238697 0.99642443382 0.99703341507 0.99712102421 0.99651546176 0.99705885298 0.99619259425 0.99664190114 0.99574632921 
0.99544765753 0.99518101992 0.9959692883 0.9958112169 0.99726067314 0.99810692649 0.99810040885 0.99921184337 0.99852462738 
0.99917347967 0.99787988587 0.99826715262 0.99581389019 0.99840186071 0.99308377155 0.99669913614 0.99123958807 0.99420290038 
0.99319801097 0.994828086 0.99605012909 0.99730052595 0.99485880549 0.99774522388 0.99823360872 0.99744129706 0.99809226168 
0.99801171189 0.99733978662 0.99807693895 0.99655964551 0.99854206514 0.99711321613 0.99903019884 0.99787410313 0.9993533601 
0.99889401692 0.99907182687 0.99910447646 0.99774589751 0.99888849527 0.99611034952 0.99755578025 0.9953844122 0.99602313981 
0.99503645896 0.99463151594 0.99471342902 0.99377304047 0.99456694083 0.9934939325 0.99431142043 0.99630539299 0.99627509628 
0.99843531118 0.9984354489 0.99926288527 0.99933424879 0.99763876275 0.99872081553 0.9909878633 0.99769512329 0.98976295503 
0.9986565728 0.99184959391 0.99788921136 0.99494908104 0.99808662741 0.997649368 0.99853320135 0.99932598756 0.99887096591 
0.99919669242 0.99835187026 0.99723999372 0.99779523173 0.99683959665 0.99774454857 0.99872576236 0.99712040419 0.99868702702 
0.99618556166 0.9990761164 0.99681056674 0.99932456318 0.99830990879 0.99923053847 0.9988981085 0.99574814712 0.99785108573 
0.99349417576 0.99607953741 0.99310262433 0.99425427498 0.99668203283 0.99497101809 0.99784828191 0.99742988471 0.99790151464 
0.99825313517 0.99780186116 0.99852016384 0.99827966972 0.99851349411 0.99857892639 0.99917896854 0.99834903633 0.99914858517 
0.99835975365 0.99937975725 0.99898844352 0.99832910237 0.99577923252 0.99482257275 0.9936366961 0.99436539902 0.99633383862 
0.99597431206 0.99425760339 0.99588729069 0.99272358254 0.9950754838 0.99839109957 0.99762891273 0.99808034511 0.99788471884 
0.99781860108 0.99841592714 0.99819928255 0.99725805456 0.99706816302 0.9976033799 0.99661764101 0.99801531672 0.9947889227 
0.99461606408 0.99556206945 0.99801091149 0.99815215851 0.99748369508 0.99759842129 0.99794686994 0.99782803096 0.99801080991 
0.99761856218 0.99761630964 0.99701293289 0.99509911762 0.99459003942 0.99612952068 0.99811678608 0.99876581414 0.99849120764 
0.99833981894 0.99804874691 0.99814233746 0.99786340952 0.99814529709 0.99848448824 0.99773613587 0.99667116289 0.99561155773 
0.99600254534 0.99628514359 0.99674429878 0.99723511966 0.99464920972 0.99376472414 0.99499960912 0.9978518648 0.99875090911 
0.99856087478 0.99859936279 0.99857851697 0.99755558032 0.99622862255 0.99838133649 0.99770154974 0.99741021302 0.99724457315 
0.99747044572 0.99878137063 0.999204909 0.99934831047 0.99828706435 0.99690848733 0.99633999515 0.9965557029 0.99747628171 
0.99626440576 0.99591625565 0.99642536371 0.99803475346 0.99907493281 0.99933090832 0.99886534074 0.99862063976 0.99877230795 
0.99852580678 0.99829211942 0.9984394669 0.99896538552 0.99862097239 0.99792333108 0.99761795438 0.99812215213 0.99848789607 
0.99753638286 0.99722923562 0.99793910275 0.99714677347 0.99660048191 0.99657779296 0.99773937298 0.99794680434 0.99807890741 
0.99830493218 0.99839743906 0.99909844111 0.99942721009 0.99932697107 0.99896033023 0.99719091701 0.99640046436 0.99692065413 
0.99652484076 0.99596307775 0.99664487907 0.99851691689 0.99738921089 0.99925067593 0.99948139644 0.99912147125 0.99842210712 
0.99800279862 0.99788409475 0.99811323871 0.99788048241 0.99745782102 0.99635651221 0.9942640738 0.9948646783 0.99574829288 
0.99657708952 0.99715539511 0.99781373327 0.99810553589 0.99835100358 0.99873941554 0.99892395855 0.9988971587 0.99728382439 
0.99558256155 0.99528852406 0.99628866661 0.99831269706 0.99866176794 0.9982680239 0.99793925208 0.99761186118 0.99770449371 
0.99805379464 0.99851881219 0.99854155631 0.9960617908 0.99478607703 0.99423205415 0.99482749796 0.99686411813 0.99762688336 
0.99832009287 0.99841835933 0.9976282302 0.99890910666 0.99875852648 0.99807980599 0.99824483579 0.99866149098 0.99903686525 
0.99873284141 0.99841669274 0.99898092769 0.9982513699 0.99750763157 0.99683119809 0.99691059131 0.9978808609 0.99930547099 
0.99951522905 0.99914736627 0.99773802996 0.99668358324 0.99694523727 0.99730193911 0.99799507784 0.99865652035 0.99883471619 
0.99760377578 0.99843639194 0.99929207387 0.99911846393 0.99898544575 0.99866295978 0.99881310238 0.99894792924 0.99917867724 
0.99924324138 0.99924146458 0.99879512747 0.99726512245 0.99643459153 0.99662488336 0.99857443096 0.99862535727 0.99833771014 
0.99680337319 0.99595483905 0.99650996407 0.9988695469 0.99919871411 0.99875886933 0.9981331324 0.99882621394 0.99893601644 
0.99938341154 0.9994712102 0.99976546715 0.99940058866 0.99838078054 0.99701054225 0.99610781897 0.99473663574 0.99544449491 
0.99746366113 0.99938745828 0.99877670392 0.99979127233 0.99990427686 0.99927833358 0.99844283516 0.99800055038 0.99765032921 
0.99792043631 0.99769795387 0.99786691733 0.99617090765 0.99592909811 0.99505800654 0.99610526591 0.998049387 0.99871592475 
0.99886740922 0.9988841943 0.99857321025 0.99897612298 0.9992584123 0.99910754184 0.99803688125 0.99657392521 0.99648570868 
0.99733905651 0.99840783792 0.99853681676 0.9975761991 0.99707472463 0.99741763752 0.99770034378 0.99815451958 0.99821723911 
0.99707112835 0.9977736323 0.99595996661 0.99573347632 0.99601926162 0.99701679896 0.99899865725 0.99925868922 0.99940100657 
0.99940590927 0.9987058389 0.99807078714 0.99856048289 0.99917667478 0.99921102636 0.99927510253 0.99898088303 0.99874764466 
0.99844193126 0.99795643747 0.99788020467 0.99787770849 0.99655532642 0.99748230563 0.99806120542 0.99940947134 0.99693204953 
0.99924282553 0.99905856233 0.99879383464 0.99792553751 0.99724355345 0.9978646672 0.99819749521 0.998406475 0.99861027813 
0.99857864517 0.99821380291 0.99860756492 0.99869753997 0.998638396 0.99894715652 0.99931491356 0.99925987301 0.99891348396 
0.99863231445 0.99844134558 0.99827830461 0.99821934462 0.99797548928 0.998069111 0.99895217757 0.99845580097 0.99705142895 
0.99888954219 0.99824801566 0.99761499877 0.99810426396 0.99850247235 0.99895862297 0.99866791825 0.99845088728 0.99905798647 
0.99972050048 0.99966376865 0.99955372356 0.99929492213 0.99899900726 0.99772292477 0.99601764531 0.9946697576 0.99443368063 
0.99647935816 0.9970659845 0.99835446138 0.99754045725 0.99773700471 0.99891023215 0.99735047503 0.99698341709 0.99667072414 
0.99585261655 0.99473385132 0.99484616349 0.99551977495 0.99662364254 0.99832505394 0.99926834529 0.99909645397 0.99944594642 
0.99864085164 0.99806805541 0.99845867384 0.99905965714 0.99958003247 0.99956878045 0.99946570101 0.99856986784 0.99761995942 
0.99784467236 0.99813849648 0.99811148071 0.99828185102 0.99899489693 0.99922967049 0.99831817408 0.99871400314 0.99766975754 
0.99720473044 0.99690873766 0.9978499618 0.99693074779 0.99743223438 0.99631053469 0.99663727929 0.99596079971 0.99631964092 
0.99627511188 0.99557489592 0.99570130258 0.99645042903 0.99830131481 0.99922571808 0.99903720123 0.99876793768 0.99893429904 
0.99926413949 0.99937665447 0.99918201928 0.99785390582 0.99764441537 0.99795550034 0.99769231827 0.99767960061 0.9970818596 
0.99770093573 0.9988300603 0.99852801131 0.99819431201 0.99716088943 0.99669738349 0.99788203504 0.99626052088 0.99752211831 
0.99560634386 0.99894087316 0.99606193029 0.99925014653 0.99885545478 0.99803197687 0.99769038153 0.99863924577 0.9978006696 
0.99838251492 0.99828764653 0.99869754079 0.99869671332 0.99904966138 0.99933811296 0.99938658239 0.99944450048 0.99909195534 
0.99898561866 0.99871604087 0.99798827346 0.9973859614 0.99815357581 0.99900320663 0.99903827517 0.99911874497 0.9989573324 
0.99810487109 0.99775651429 0.99781255402 0.99834869131 0.99840177653 0.99829428852 0.99762202653 0.99703504201 0.99805333204 
0.99843541426 0.99902308151 0.99946349604 0.9997094145 0.99958804498 0.99926012474 0.99880208087 0.99827262259 0.99804219013 
0.99803154003 0.99531301383 0.99824906022 0.99767044256 0.99777648014 0.99764148305 0.99904599884 0.99919282918 0.99932897032 
0.99901681343 0.99868728982 0.99893993709 0.99852835942 0.99810669535 0.99815400953 0.99809889198 0.99735379598 0.99604334318 
0.9966141086 0.99827851691 0.99785707651 0.9988115588 0.99656083974 0.99372333138 0.99285012987 0.99524636688 0.99165793135 
0.99104000134 0.99383625794 0.99490355291 0.99386312873 0.99685748016 0.99811047631 0.99751787005 0.99706843662 0.9985063484 
0.99916041391 0.99882303949 0.99826746483 0.99808473374 0.99874132403 0.99942241065 0.99954926253 0.99935849254 0.99872141889 
0.99793415743 0.99705575063 0.9970037949 0.99533971671 0.99753192525 0.99680568866 0.99652752497 0.99714098334 0.99787857336 
0.99730810847 0.99727438988 0.99772617676 0.99863017829 0.99914377777 0.99925843685 0.99919293816 0.99926530661 0.99861119861 
0.99778638109 0.99725869698 0.99735880947 0.99730291449 0.99744439537 0.9958256622 0.99548651685 0.99606510087 0.99589159676 
0.99585583366 0.99665014525 0.99679260701 0.99682516965 0.99650332503 0.99646455303 0.99790449214 0.9988094422 0.99905688477 
0.99909394623 0.9988156698 0.99916486061 0.99917760019 0.99935070684 0.99902581102 0.99844550412 0.99707693126 0.99650045623 
0.99684226302 0.99745365723 0.99793949266 0.99770056997 0.99736467445 0.99673111654 0.99801804523 0.9983205554 0.99624651105 
0.99395707372 0.99664434138 0.99645972892 0.99867447097 0.99785174899 0.99881611015 0.99929500728 0.9992365107 0.99926666955 
0.99949306694 0.99956636899 0.99901789682 0.9984599571 0.99815119699 0.99843056498 0.99889679462 0.99908599204 0.99886567847 
0.99868012857 0.99863360486 0.99915584543 0.99916226728 0.99910659746 0.99839280724 0.99754535342 0.9978224124 0.99756500473 
0.9959800554 0.99676851827 0.99917905875 0.99913038649 0.99950012435 0.9998456509 0.9995999639 0.99964502714 0.99830518515 
0.99703783511 0.99671382158 0.99595210977 0.99429316489 0.99209595025 0.9930530989 0.9912090017 0.99332762113 0.99107196331 
0.99230050873 0.99508989595 0.99632222055 0.99308283962 0.99861650299 0.99841320516 0.99782648615 0.99864223447 0.99934518225 
0.99947173877 0.99950455767 0.99946268352 0.99935493717 0.99919353288 0.99941660182 0.99940652882 0.99819736448 0.99798921313 
0.99790251144 0.99679474875 0.99596646979 0.99609915547 0.9946301252 0.99526549717 0.99482506747 0.99855873439 0.99913768256 
0.9958436792 0.99801321533 0.99864232794 0.99778668903 0.99693795375 0.99643958678 0.99704306353 0.99691270639 0.99553392708 
0.99186740645 0.9909598056 0.9908793033 0.99270454937 0.99510011891 0.99669465668 0.99657175188 0.99719942101 0.99805091554 
0.99895558451 0.99814708772 0.99921379391 0.99929291013 0.99933502156 0.99916978343 0.99891526224 0.99876818133 0.99863525291 
0.99904067041 0.99910018684 0.99913548722 0.99903708668 0.99779837664 0.99588387255 0.99439102346 0.99384322577 0.99306103467 
0.99496109524 0.99487335485 0.99451492403 0.99443549905 0.99388078248 0.99571006954 0.99753062486 0.99825262278 0.99855506842 
0.99904498923 0.99943369421 0.99942862774 0.99774394039 0.99939283375 0.99918464868 0.99959714382 0.99951028622 0.99949140898 
0.99953280091 0.99933283822 0.9988870419 0.99950546275 0.99941698434 0.99880800237 0.99592079503 0.99271190439 0.99070368214 
0.99211359698 0.99201486362 0.99135669901 0.99244859394 0.9932779937 0.99083701315 0.99356970596 0.9961781619 0.99414927502 
0.9967700492 0.9973056598 0.99754445459 0.9979683509 0.99833663638 0.9990656245 0.99968597553 0.99974969936 0.99954206935 
0.99954385943 0.99959121573 0.99925245102 0.99860989691 0.99755271518 0.99743374293 0.99740175318 0.99762970349 0.99811713501 
0.99825764308 0.99751936983 0.99639643947 0.99618312729 0.99621633541 0.99614027386 0.99515984693 0.99372006597 0.99715534395 
0.99423541396 0.99497311167 0.99580480221 0.99539277142 0.99649504835 0.99762697966 0.99690135751 0.99610647132 0.99721743472 
0.99760981038 0.99792079272 0.9987718344 0.99944363606 0.99915407297 0.99876791625 0.99866050755 0.99909381384 0.99932436647 
0.99902863668 0.99911074114 0.99760955832 0.99608903433 0.99720946226 0.99782522048 0.99934095225 0.99845800044 0.99812723471 
0.99737876422 0.99667086101 0.99698335516 0.99803600321 0.99871650233 0.99772445375 0.9976736006 0.99721056868 0.99831329119 
0.99878562002 0.9987756532 0.99735382764 0.99540571267 0.99429792835 0.99601167579 0.9963338334 0.99668768907 0.99661588621 
0.99572605788 0.99523569488 0.9957548167 0.99711242841 0.99873444845 0.99917314576 0.99911381328 0.99877628184 0.99818180032 
0.99857493698 0.99822396443 0.99880733427 0.99657391238 0.99649819309 0.99831725332 0.99890511535 0.99915787835 0.999276729 
0.99779232469 0.99923061622 0.99892131015 0.99048292413 0.98976297829 0.99421356025 0.99238683826 0.99285950683 0.99513295466 
0.99675981818 0.9978220967 0.99748742847 0.99737085691 0.99802199517 0.99934106047 0.99985932566 0.99972394843 0.9994017137 
0.99921650191 0.99913272085 0.99896936909 0.9986425288 0.99820840678 0.99763912871 0.99803780796 0.99738005877 0.99739169735 
0.99793450135 0.99796646498 0.99818887392 0.99792054875 0.99521652945 0.99512333819 0.99731867093 0.99660038559 0.99824163878 
0.99826674424 0.99738851556 0.99852206006 0.99779444364 0.99741379137 0.99622722948 0.99659701101 0.99658018957 0.99716162787 
0.99807226062 0.99867342908 0.99905649337 0.99934590854 0.99873996021 0.99861130971 0.997728407 0.99733004957 0.99584776095 
0.99422615628 0.99361839293 0.99287109342 0.99225467034 0.9939503391 0.99517067207 0.99542116943 0.99886834978 0.99860965117 
0.99819123845 0.99828852704 0.99827885688 0.99846326674 0.99939027607 0.99919813742 0.99887796238 0.99870472274 0.99877666054 
0.99865707443 0.99900663642 0.99872192988 0.99757640015 0.99476083562 0.99784943257 0.997055945 0.99876001218 0.99843060909 
0.99890326048 0.99886881749 0.997930817 0.99816585815 0.99874543359 0.99898732975 0.99744518241 0.99891294003 0.99798726872 
0.99739515115 0.99783850055 0.99755039479 0.99664661676 0.99652239014 0.99931642037 0.99889403262 0.9971344108 0.99438780956 
0.989791596 0.98953116554 0.98784446336 0.98771194062 0.98829638455 0.98984432007 0.98899748298 0.99292492707 0.99256190241 
0.99273536075 0.99211218092 0.99138806407 0.99189778338 0.99423447059 0.99804650618 0.99757932256 0.99467905113 0.99459710985 
0.99522893018 0.99572268476 0.99755837169 0.99764541016 0.99874462551 0.99878531278 0.99896864327 0.99961559279 0.99973947568 
0.99950463593 0.99891878439 0.99896887004 0.9986550581 0.99767981325 0.99464071021 0.99605887787 0.99741541954 0.99733297222 
0.9977225917 0.99852807228 0.99692159501 0.99660014221 0.99673568226 0.99705703314 0.99581229786 0.99834948072 0.98612786446 
0.98794139663 0.98607395637 0.98799491324 0.99065652495 0.99762799121 0.99787290795 0.98952266892 0.98949828222 0.99089670444 
0.99790481824 0.99798065265 0.99498848897 0.99529178156 0.99890227635 
Circumferential 3 1139 double
0.016025789443 -0.79814140221 -0.60225698514 0.0011177165427 -0.8623391112 -0.49999987186 -0.010987922336 -0.85894529984 -0.50182374862 
0.026526734139 -0.77841386403 -0.62421531697 -0.023479780894 -0.91619383321 -0.3870406279 -0.047769170313 -0.91680987501 -0.39007213079 
-0.05539911911 -0.96223284816 -0.26599428893 -0.061154454382 -0.95469273818 -0.28895947192 -0.052970603441 -0.98295666669 -0.13154833117 
-0.060600912532 -0.97659290205 -0.19234779604 -0.050333170117 -0.99714680259 -0.0091524686229 -0.072743094714 -0.9924808574 -0.067356456865 
-0.048125338801 -0.99293501968 0.077480760757 -0.087968093906 -0.99351381419 0.041150852132 -0.045203179739 -0.97999476492 0.17302096071 
-0.07981882528 -0.98487608598 0.13625168134 -0.04116301907 -0.95339349025 0.28250155076 -0.069586422079 -0.96910540749 0.22981227499 
-0.041443055751 -0.90900698915 0.39872709166 -0.073151286841 -0.92816816565 0.34629103985 -0.046794969607 -0.84374077433 0.52287115097 
-0.081348598183 -0.87837612339 0.46423542497 -0.045794204361 -0.7940120877 0.60409763522 -0.082816856423 -0.81569144988 0.56645822685 
-0.03989819872 -0.75625629228 0.65225274224 -0.07629044129 -0.74964288596 0.65575438059 -0.028633667948 -0.71226255416 0.69935235239 
-0.0732684247 -0.67966421093 0.72771456385 -0.020740630004 -0.65209780629 0.75433831958 -0.062468890249 -0.59767863677 0.79697842162 
-0.027511963303 -0.54396718694 0.8355821781 -0.071356087486 -0.47971864872 0.87262264299 -0.021113037485 -0.42010765878 0.90209277125 
-0.045833612291 -0.33341644396 0.93778964051 -0.011900222527 -0.28629289692 0.95380749168 -0.019808367549 -0.19487798063 0.97786170291 
-0.0040056778212 -0.14206997135 0.98826864873 -0.0014038662233 -0.068983692916 0.99589287262 0.00597945943 0.035171312888 0.99497365231 
0.016857531728 0.079965579051 0.99529709809 0.0045385232705 0.12920056385 0.99053619502 0.030130077306 0.16319914013 0.98517849773 
0.013175506721 0.18882388718 0.98120402725 0.04035963036 0.21717266217 0.97463107429 0.048714776668 0.23771024445 0.96988278333 
0.061899860178 0.26278396546 0.96281502426 0.067938825342 0.33480713533 0.93637502949 0.075159253336 0.33582118082 0.93701163343 
0.083564911886 0.46126636834 0.87331540416 0.091523590287 0.43317943497 0.89011937985 0.096209601598 0.6241986964 0.76978234024 
0.11101928314 0.57818339628 0.80203010122 0.097998889266 0.72279944236 0.67632789585 0.12512706577 0.69698297696 0.69778549481 
0.098349306378 0.80316705214 0.58429650689 0.12634597124 0.79245419381 0.59523384066 0.10134988317 0.86099866907 0.49014795631 
0.1274084886 0.84625825335 0.51122086311 0.10528612601 0.90561463865 0.40648039323 0.12671320081 0.89188281459 0.43273355059 
0.11039292506 0.93369734305 0.33592494095 0.12306403158 0.92063933716 0.36611336079 0.12043283206 0.95454191836 0.26557652986 
0.12127767733 0.94642017152 0.29629257352 0.13349313093 0.97095480967 0.19535488402 0.11272411727 0.96770546286 0.2200622945 
0.1151943235 0.98449021114 0.10283268475 0.10599734255 0.98391966038 0.12586373149 0.10018350351 0.99329815481 0.0039710014131 
0.091842695196 0.99461120353 0.036943477452 0.12210137542 0.98392682621 -0.10584420192 0.088225211818 0.99311639204 -0.047625541264 
0.099142919597 0.97239707199 -0.19746132628 0.077396540669 0.98319927741 -0.14443594917 0.048195247539 0.95911836016 -0.27823093417 
0.053677147053 0.96383425859 -0.25833595526 0.0064153297575 0.8915804952 -0.43097232588 0.014352722844 0.90338090091 -0.40780207363 
-0.026723818014 0.81034921561 -0.57435356613 -0.019588344752 0.83127172651 -0.54833541693 -0.044047217069 0.70405393862 -0.70060237241 
-0.039412447378 0.71550668468 -0.68635290724 -0.048014458983 0.57129124688 -0.80653921635 -0.043574423555 0.58742388208 -0.800289838 
-0.046134541092 0.42679283286 -0.90308524148 -0.036797656791 0.45375805249 -0.88777975037 -0.068902553398 0.30338501919 -0.94402479678 