# vtk DataFile Version 5.1
vtk output
ASCII
DATASET POLYDATA
POINTS 1134 double
52.736465454 46.985340118 20.625259399 52.542368998 45.540906033 20.20411129 51.221873309 45.700067365 20.937084904 
51.317198527 47.161026511 21.107744855 52.375341248 44.089002037 19.888120105 51.017664464 44.26691197 20.711752513 
52.358332414 42.595698651 20.154924693 50.99936295 42.828349282 20.971230465 52.333177944 41.11083188 20.455264491 
50.90114825 41.359405758 21.206421808 52.270830519 39.664486676 20.908726004 50.807956968 39.888066505 21.518702625 
52.211075831 38.212502892 21.342878999 50.729397355 38.424371169 21.883454668 52.158334344 36.745267083 21.724803607 
50.653445028 36.954398587 22.249825511 52.14653722 35.311835092 22.201974561 50.605388264 35.48548754 22.682956825 
52.199716736 33.932048055 22.830296664 50.670387995 34.100056101 23.30192038 52.389411017 32.783074025 23.723015419 
50.842499927 32.839272796 24.181757033 52.72191601 31.875557902 24.892324578 51.122178629 31.878934144 25.303058067 
52.977231139 30.959373439 26.071454177 51.380322135 30.963285033 26.472382263 53.150662706 30.03399354 27.26100137 
51.618731249 30.087018011 27.672899469 53.346109772 29.124662234 28.459111534 51.8441006 29.169485669 28.84106241 
53.565259001 28.232609046 29.6664407 52.077409782 28.214941723 29.978844551 53.81742829 27.293149525 30.827434757 
52.324630603 27.222848387 31.081802869 54.113837524 26.290175473 31.926349499 52.582403445 26.156230403 32.125280061 
54.415772134 25.391250969 33.083307832 52.874423804 25.113081252 33.270437966 54.742427273 24.957843942 34.49995308 
53.174791209 24.824650945 34.688604802 55.069082412 24.524436914 35.916598329 53.47780577 24.497674076 36.106002098 
55.370424508 24.540188416 37.398712677 53.774441961 24.612097889 37.589526866 55.670087291 24.585737903 38.885170363 
54.014254582 24.840724734 39.030710138 55.806181829 25.256805985 40.191911799 54.196980567 25.497982019 40.367431105 
55.896873012 26.101505826 41.44876751 54.33868259 26.335296874 41.603224934 55.990067158 26.964149765 42.693133597 
54.469273349 27.179346888 42.847488075 56.092536362 27.831492286 43.932917322 54.62610726 28.005256479 44.107557115 
56.377394696 28.686549832 45.153229297 54.856670511 28.797349611 45.384504713 56.656677827 29.651481775 46.274512433 
55.120301097 29.78580907 46.55388858 56.927039585 30.792233382 47.23733084 55.368371122 30.989299226 47.440064656 
57.099535701 32.04919404 48.052472879 55.571157816 32.191640206 48.342135981 57.212586204 33.376742477 48.777913245 
55.757485656 33.414270184 49.23663449 57.26033387 34.785678077 49.32902274 55.886902497 34.788272832 49.920839155 
57.295010064 36.214885165 49.836313304 56.019755235 36.219991127 50.524858099 57.405839037 37.641966802 50.338890595 
56.075789482 37.700153732 50.884270554 57.506942115 39.091686602 50.764050548 56.143847387 39.18658757 51.21774987 
57.595139257 40.571446486 51.086480293 56.223165275 40.687183591 51.51597064 57.63673413 42.074256579 51.285411494 
56.315843847 42.18610728 51.77301256 57.609898649 43.55080247 51.1985546 56.367230838 43.705300135 51.784746868 
57.492707914 44.987243163 50.72491607 56.40846685 45.206516588 51.538331765 57.56362724 46.360566074 50.088525636 
56.414274286 46.638115302 50.961697909 57.604442447 47.689177885 49.365290479 56.311121275 47.942225891 50.122114845 
57.587448983 48.967549894 48.548647828 56.155308202 49.107526814 49.153359033 57.554947944 50.236004475 47.717189502 
56.009736054 50.264289682 48.184565521 57.480676663 51.485730228 46.868094964 55.829678521 51.424497979 47.231311907 
57.161346786 52.627956709 45.922168916 55.543968254 52.492188049 46.193218674 56.8367811 53.763424316 44.970257006 
55.22281356 53.588039019 45.183525564 56.480340301 54.857744551 43.981903744 54.881605184 54.666163454 44.153302429 
56.123899502 55.952064787 42.993550482 54.523595814 55.787393188 43.173849009 55.748614145 56.753287454 41.769294433 
54.200879172 56.716487582 41.95532195 55.370695642 57.513555656 40.512075734 53.940424882 57.61219245 40.744938115 
55.278341272 57.79737195 39.087989785 53.925608502 58.088228722 39.222128019 55.342459998 57.820119376 37.572469962 
53.919854918 58.277792738 37.705956241 55.264993765 57.677772593 36.074885684 53.870923275 58.195706044 36.148203667 
55.091183393 57.423084361 34.589505985 53.730249121 57.925795248 34.64474804 54.956584699 57.022373587 33.135414267 
53.559141643 57.435709452 33.215463817 54.835737491 56.570452892 31.692295205 53.391091765 56.912662948 31.798172223 
54.659407439 55.956374716 30.316507104 53.18503305 56.232723007 30.452593409 54.47039147 55.29731095 28.965381839 
52.97197873 55.524474679 29.124152286 54.254124003 54.540559143 27.668468551 52.747791694 54.761027467 27.829384177 
54.039920873 53.774724544 26.376578441 52.536375388 53.950036148 26.574275602 53.826884947 53.003754414 25.087528503 
52.330391647 53.094392329 25.362871063 53.591028369 51.829641491 24.162156067 52.123622291 51.955940466 24.421635395 
53.353948404 50.650873522 23.237370554 51.907947006 50.80181133 23.485195812 53.116175018 49.490999394 22.288906103 
51.687006532 49.662765425 22.548920454 52.918760192 48.252835203 21.438680465 51.500011389 48.425445381 21.785147241 
28.850568771 51.300132751 32.022968292 29.159749595 52.573575062 32.789095684 30.547638141 52.596903537 32.341752685 
30.26950464 51.313976618 31.591604924 29.581067314 53.717335346 33.662817746 30.904156716 53.813880504 33.162440337 
30.153236252 54.68664197 34.681280635 31.366241219 54.876729774 34.145705475 30.761582338 55.356583598 35.882469181 
31.967101896 55.55594377 35.390371457 31.352586903 55.90231975 37.1617479 32.486716884 56.121825934 36.739346453 
31.565641821 56.167887219 38.641031782 32.852732803 56.450807989 38.211778594 31.780092177 56.35073989 40.128622381 
33.142391515 56.64619067 39.730359601 31.996934532 56.39180633 41.630452006 33.388699101 56.729453493 41.255686032 
32.30429003 56.229937822 43.092873366 33.707191467 56.474709929 42.758744126 32.691363534 55.889337598 44.520586528 
34.005400001 56.118989091 44.226654718 32.861839235 55.555362833 45.979612038 34.210872753 55.620044983 45.639617236 
32.874888524 55.226203547 47.461395815 34.331287836 55.081747112 47.043913543 32.966936409 54.842432465 48.92469826 
34.438008856 54.615683886 48.469037755 33.11838679 54.417596389 50.374103784 34.565947965 54.135222424 49.883075794 
33.18189298 53.774946872 51.74305912 34.621384191 53.426956414 51.1734831 33.245276396 53.017980706 53.046215821 
34.697505171 52.610645667 52.38180573 33.382198124 51.992532815 54.157030093 34.802524385 51.628519758 53.435745237 
33.470536708 50.725626233 54.940839172 34.918020942 50.459999494 54.27015264 33.570692955 49.342506985 55.552007987 
35.079556971 49.197749485 54.978647769 33.824233433 47.935590467 56.062402365 35.245533087 47.826580426 55.435487419 
33.985837313 46.458305124 56.327433019 35.388062406 46.40150357 55.74586363 34.093705388 44.957886974 56.526971506 
35.50952564 44.955237689 55.997354973 34.167921267 43.458905423 56.752816126 35.629840417 43.499563775 56.232357028 
34.285705765 41.9533042 56.90608403 35.766306762 42.037581419 56.410627869 34.458237484 40.450505068 57.028716925 
35.926486695 40.569971717 56.512246221 34.685558441 38.95359299 57.116757059 36.090811911 39.10149675 56.500976011 
34.98072104 37.465245199 57.160336588 36.300307226 37.645151496 56.498823558 35.204820806 35.966639581 57.112045664 
36.488916386 36.194805147 56.406374997 35.398458827 34.463636849 57.024373615 36.647759037 34.766289033 56.197031345 
35.411486398 33.084949786 56.494359332 36.6542316 33.409136642 55.664534114 35.333863577 31.768658138 55.742328563 
36.580002478 32.157092428 54.929509232 35.11823309 30.676742117 54.74641397 36.395109928 31.051688765 53.98404207 
34.823809209 29.712929975 53.611257586 36.167817037 30.078465187 52.918524076 34.540823545 28.964024637 52.34668737 
35.926559301 29.26195689 51.713885838 34.26946793 28.433630338 50.950532902 35.632079584 28.73696954 50.380692113 
33.965494901 27.978395761 49.540023319 35.338861415 28.257407898 49.018722309 33.59069608 27.686363791 48.098342892 
34.998698521 28.0053294 47.614171289 33.23798564 27.546309129 46.647650926 34.672083421 27.829958893 46.191826904 
32.937235679 27.763764311 45.17576031 34.335261579 27.998510768 44.776256793 32.581873777 27.955832124 43.71483982 
33.959009229 28.177257031 43.347892193 32.128308167 28.102248129 42.273645915 33.535047163 28.367704371 41.929241084 
31.641763908 28.410112287 40.877942137 33.086200896 28.684537113 40.536396738 31.127339577 28.85446434 39.520695608 
32.645113679 29.108934658 39.176956709 30.748042548 29.611407086 38.278305051 32.258317001 29.755552622 37.883492409 
30.426261383 30.495200958 37.091519388 31.928200171 30.496852962 36.601316682 30.257957378 31.652386954 36.123638396 
31.74180983 31.586647819 35.597085108 30.147840523 32.800355688 35.138383641 31.575985915 32.699310497 34.580099134 
30.089397674 33.941205179 34.139295233 31.40519423 33.852959443 33.601421751 29.838981116 35.193320058 33.318503445 
31.153196617 35.084181103 32.735315641 29.531140306 36.504187138 32.63418679 30.868023255 36.409940367 32.01976615 
29.173395215 37.868437206 32.073330237 30.588481678 37.788886961 31.422148442 29.008008668 39.310451358 31.628986047 
30.40528119 39.241814297 30.994162408 28.884194563 40.782946469 31.311752425 30.279636052 40.728220518 30.686980517 
28.804551111 42.28782755 31.129573574 30.206579259 42.242597148 30.503111864 28.804090468 43.805186431 31.150381486 
30.231063076 43.775507015 30.524300547 28.832011207 45.322257955 31.184683028 30.271835814 45.310799141 30.601144228 
28.879453471 46.838379427 31.230852416 30.291401722 46.851261537 30.719418735 28.79963453 48.348665123 31.360719012 
30.250169577 48.380743931 30.894707549 28.792953827 49.834948936 31.630391947 30.21842708 49.86475202 31.197276314 
[...]
POINT_DATA 1134
FIELD FieldData 21
Circ_Strain_Pt 1 1134 double
0.99040953127 0.98929724694 0.99161519655 0.99234806617 0.9891659321 0.99251984155 0.99447130037 0.99517300373 0.99873271158 
0.99827464113 0.99822741683 0.99894394909 0.99704313272 0.9981942927 0.99402222282 0.9965587556 0.99050517448 0.99312131079 
0.9862007797 0.98842178245 0.98757228636 0.98758844638 0.99488145632 0.99157828877 0.9986135264 0.99655953112 0.99855098319 
0.99928262609 0.99697361813 0.99950420542 0.99376537688 0.99712265066 0.99101223887 0.98872504763 0.9888688436 0.97728903972 
0.98698056623 0.97189709916 0.9862336858 0.97129169417 0.98548680538 0.97550272596 0.98512934993 0.98386495567 0.98479772964 
0.98674351125 0.98973494351 0.98705417665 0.99613468296 0.99359522952 0.99733001299 0.99858431334 0.99698014115 0.99514465001 
0.99629648811 0.99033649494 0.99648547294 0.98952193039 0.99807084227 0.99265939802 0.99872766078 0.99559120535 0.99882045883 
0.99783184633 0.99890833902 0.99745065355 0.99899146789 0.99734483651 0.99899252382 0.99760626948 0.9982360085 0.99874114325 
0.99647422156 0.99820452943 0.9908827461 0.9966017521 0.98932457766 0.99578179719 0.99396366368 0.99779889978 0.9965614241 
0.99272092939 0.99810185853 0.99252054681 0.99851128862 0.99498593642 0.99817899648 0.99698174363 0.99778758744 0.99816064352 
0.99762713293 0.99890084208 0.99724554203 0.99832594346 0.99551769396 0.99760078124 0.99378984589 0.99460678668 0.9916533202 
0.99052673964 0.98945969006 0.98839339811 0.99166465888 0.98976501465 0.99627981271 0.99351392 0.99847336628 0.99641667504 
0.99901909656 0.99781628529 0.99913697926 0.99890143141 0.99910481636 0.99953661014 0.99945154693 0.99961590237 0.99875591324 
0.99949696907 0.99567102103 0.99812714673 0.99264878393 0.99588600441 0.98966197288 0.99424514732 0.99455203702 0.99573720359 
0.99759004983 0.99734913555 0.99669031787 0.99563800179 0.99390343024 0.99411282141 0.99703606237 0.9952312173 0.99559634091 
0.99540923762 0.99428996848 0.99528367858 0.99451046899 0.99421206315 0.99540092585 0.99529170889 0.99651688037 0.99775812518 
0.99759199432 0.99842003285 0.9969042118 0.99678841391 0.99319454631 0.99536158098 0.99228622786 0.99526090112 0.99384515107 
0.99566111701 0.99504534163 0.99574006683 0.99598480012 0.99592403366 0.99679732624 0.99625395463 0.99751440637 0.99687452508 
0.99787651257 0.99720079621 0.99739536665 0.99615538403 0.99388019173 0.99505535548 0.99351902632 0.9959423564 0.99472696016 
0.99730534321 0.99647532572 0.9981066273 0.99747511149 0.99898436866 0.99851126975 0.99951656712 0.99991820268 0.99966543509 
0.99993246089 0.99873126219 0.99995405824 0.99837673787 0.99984158109 0.99875139133 0.99950461104 0.99606835807 0.99500895718 
0.99137098316 0.98873064469 0.98976893793 0.98798947166 0.99061164419 0.9900274505 0.99337550415 0.9915389419 0.99451120392 
0.99274984324 0.99410043793 0.99418442752 0.99426115814 0.99584644614 0.99561196712 0.99641117522 0.99658670316 0.99459323832 
0.99587181463 0.99353248102 0.99408860081 0.99425290522 0.99569821616 0.99529797067 0.99767186382 0.99692680908 0.99847028236 
0.99739295058 0.99782986657 0.99687616344 0.99637074442 0.99560163713 0.99485375135 0.9942890796 0.99479787628 0.99586199822 
0.99646866272 0.99769959953 0.99827069174 0.9997503204 0.99978559375 0.99926440585 0.99897842669 0.99900597652 0.99850967069 
0.99895008336 0.99826163089 0.99870399142 0.99784995045 0.99850000454 0.99797469714 0.99834075448 0.99851175016 0.99894370922 
0.99895617241 0.99945443034 0.9993723539 0.99979616986 0.99915502346 0.99907372256 0.99861689402 0.99814538936 0.99711828921 
0.99562373176 0.99083526792 0.99780809945 0.99788517114 0.99831841965 0.99852534396 0.99673701997 0.99158285063 0.98679638325 
0.98641133163 0.9936155472 0.99851464252 0.99862644048 0.9988406786 0.99924732636 0.99396523605 0.97079966653 0.94829695989 
0.95738550385 0.97627049471 0.98534497678 0.98812490283 0.99213138133 0.99467991047 0.99812152174 0.99315682528 0.98772104449 
0.98804807263 0.99418166013 0.9976292175 0.99763887226 0.99782859538 0.99794097487 0.99876282076 0.99852408988 0.99730762411 
0.9957234044 0.99390562954 0.99158119111 0.98618008372 0.98719432036 0.99655448673 0.99837612066 0.99932425644 0.99921181767 
0.99886452085 0.99756967489 0.99625557907 0.99276870889 0.98868388391 0.98815579673 0.98807446201 0.9892537743 0.98974064138 
0.99252564218 0.99627643207 0.99829901274 0.99916602643 0.99952030124 0.99801359186 0.99577319466 0.99641879049 0.99703366734 
0.99687165466 0.99439997629 0.99124240179 0.99308448831 0.9933854103 0.9934254185 0.99483379746 0.99748209483 0.99843759649 
0.99750144006 0.9971167067 0.99376205235 0.99189558047 0.99212240842 0.99386915749 0.99697805209 0.99827077247 0.99869813497 
0.99749479686 0.99619793484 0.99542569333 0.99592878355 0.99775344345 0.99912364436 0.99956805918 0.99928427043 0.99876080803 
0.99897998206 0.99921227186 0.99846117927 0.99655545717 0.99322767358 0.99349717229 0.99527633307 0.99534153529 0.99442877823 
0.99430518418 0.99544014244 0.99601161664 0.99182191504 0.98887428642 0.99113994759 0.9963429216 0.99922590352 0.99822176815 
0.99757041098 0.99626840845 0.99509389111 0.99638296817 0.99908383157 0.99917979229 0.99866009857 0.99854613809 0.99855164071 
0.99789158994 0.99784246672 0.99896337507 0.9991023395 0.99878073326 0.99815908524 0.99654503302 0.99516373936 0.99392512342 
0.99222160124 0.98752447518 0.99827114321 0.99914678221 0.99868561998 0.99851906494 0.99584277228 0.98707064633 0.98534387706 
0.99048669567 0.99629990992 0.99814755877 0.99843671107 0.99884448676 0.99196838521 0.96534169665 0.94000974082 0.92532154101 
0.92750052514 0.9606501013 0.98255494107 0.98664460479 0.99274705014 0.99546003211 0.99556992368 0.99039964712 0.99089408023 
0.99578168275 0.9987274181 0.99937251638 0.99952297185 0.9987202679 0.99791565467 0.99818164134 0.99877223713 0.99750717693 
0.99755876201 0.9967984704 0.98577532298 0.98633932562 0.99137428737 0.99775734204 0.99886061967 0.99900480614 0.9983090614 
0.99597467842 0.99294703589 0.99360459442 0.99390208202 0.99002398069 0.98607763337 0.97892105786 0.97866811471 0.98678748963 
0.99469824787 0.9988677666 0.99906172149 0.99898521542 0.99851073312 0.99766918551 0.99736362321 0.99678379473 0.99528026838 
0.9912678645 0.98514957841 0.98535359757 0.99417318365 0.99503387147 0.99561967838 0.99778015508 0.99772918758 0.99862206715 
0.99619814895 0.99195005411 0.99026472811 0.99320575016 0.9956404441 0.99669376409 0.9978091145 0.99771645112 0.99716938372 
0.99634984921 0.99617808 0.99692293672 0.99809376056 0.99876698084 0.99896416853 0.99941428462 0.99897597448 0.99835522958 
0.99798337899 0.9977784169 0.99740162434 0.99725681817 0.99696635777 0.99684710328 0.99646583925 0.99601628783 0.99594846016 
0.99592196954 0.99576174584 0.99384196029 0.99198908893 0.99440045719 0.99739290132 0.99827525933 0.99789131856 0.99640060898 
0.99511853216 0.99421443296 0.99667832049 0.99893376227 0.99926436014 0.99888158634 0.99890607919 0.99844778541 0.99768801228 
0.99754200866 0.9981503401 0.99872687402 0.99903103366 0.99863253536 0.9977114049 0.99693367547 0.99618460161 0.99488315346 
0.99901559475 0.99800718477 0.99931724844 0.99922073254 0.99876512352 0.99645680342 0.99221581113 0.9889002445 0.99236537022 
0.99520644478 0.99823860347 0.99897580364 0.99919690168 0.99561096063 0.98114999777 0.95724601665 0.94678028912 0.95154233761 
0.96951835032 0.98462687879 0.98886827342 0.99402165202 0.99822575397 0.99595800402 0.99394290376 0.99443323118 0.99654353223 
0.99872177152 0.99946391034 0.99957767872 0.99815641811 0.99714270786 0.99716021971 0.99779609731 0.99692690381 0.99692547561 
0.99390830625 0.99205826357 0.99095045712 0.9959370421 0.99810375508 0.99780248281 0.9972570681 0.99645963674 0.99466994219 
0.99268846084 0.99175410332 0.99282938247 0.99647025011 0.99335379684 0.98200019732 0.98471524243 0.99270760602 0.99778541693 
0.99897634556 0.99957163005 0.99949471913 0.99900891889 0.99821873106 0.9983956653 0.99756847459 0.99523635497 0.98960411709 
0.98550126814 0.98707779693 0.99395598312 0.99747797914 0.99727896271 0.99770900014 0.99850333896 0.99879525645 0.99769245033 
0.99587364321 0.99636156317 0.99732802356 0.99790433654 0.9978867688 0.99800666647 0.9983899059 0.99834534621 0.99818508237 
0.99751227474 0.99706791726 0.99777355059 0.99822631422 0.99772015278 0.99862267509 0.99871480658 0.99854160371 0.99889462527 
0.99847129489 0.99750273471 0.99758935017 0.9975776092 0.99717255152 0.99683116922 0.99654692451 0.99640253301 0.99691312532 
0.99732081367 0.99753829138 0.99758700262 0.99722831781 0.99713555476 0.99794369653 0.99820067662 0.99755099331 0.99589547598 
0.99467734689 0.99567289153 0.99772348645 0.99860100899 0.9990231005 0.99930524253 0.9994220441 0.99867318754 0.99868482835 
0.99877426071 0.99894779466 0.99918017774 0.99956307096 0.99703482931 0.99527330521 0.99448118658 0.99469106165 0.99605046031 
0.99942875449 0.99950712263 0.99901859443 0.99836871235 0.99603131082 0.9955479054 0.99544038441 0.99692222635 0.99922376033 
0.99950913819 0.99861289698 0.99535829546 0.98901030963 0.98036345928 0.97328636068 0.9728658381 0.98094987993 0.98431383772 
0.98414582851 0.98659199881 0.99349336261 0.99763206519 0.99737758034 0.99672976741 0.99691037113 0.9982215692 0.99895052277 
0.9990985784 0.9987965199 0.99813761513 0.99712256895 0.99684491 0.9970136677 0.99599588337 0.99678757394 0.99733327875 
0.99508210586 0.99497019012 0.99556577379 0.99678310516 0.9946141015 0.99437209827 0.99489858219 0.99476920856 0.99340389239 
0.99195788174 0.99328275791 0.99453387103 0.98360225927 0.97523422422 0.9768916601 0.98203224002 0.98794855037 0.99331876862 
0.99680191182 0.99923194286 0.99965922119 0.99902689975 0.99655409525 0.99581309364 0.99592624204 0.99331894652 0.98892654851 
0.98985835113 0.99267312165 0.9975501541 0.99902603182 0.99686548922 0.99872632342 0.99856762526 0.99834957769 0.99807622244 
0.99858984028 0.99894675734 0.99816339062 0.99771856862 0.99729941451 0.99720039423 0.99762769945 0.99753023809 0.99645643544 
0.99597198283 0.99738167354 0.99818716861 0.99803924682 0.99808439218 0.99792397619 0.99768962078 0.9983788757 0.99809596081 
0.99737271205 0.99793816263 0.99847222309 0.99846993304 0.99836466066 0.99818114904 0.99678606281 0.99487814926 0.99355712379 
0.99431345005 0.99542317684 0.99562891825 0.99617191462 0.9973295077 0.99826422005 0.99909891228 0.99808172629 0.9963741106 
0.99691618553 0.99787961309 0.99920372841 0.99937750293 0.99918245309 0.99920602215 0.9993643126 0.99869074275 0.99831050052 
0.99908975909 0.99928415211 0.99866948392 0.99638136732 0.99372433989 0.9933311665 0.99574173901 0.99622376111 0.99568782237 
0.99180184244 0.99274685747 0.9990738168 0.99946030987 0.99876898923 0.99854914673 0.99780061277 0.99822414866 0.99883642883 
0.99910026448 0.99911059738 0.99899505803 0.99876897288 0.99774846099 0.99501413489 0.9914976878 0.98773788001 0.984081147 
0.97699860592 0.95921859205 0.94380895144 0.95598451876 0.97681281838 0.99511715624 0.99743705921 0.9975720608 0.99815100353 
0.99852557066 0.99837106672 0.99871460833 0.99814076125 0.99670647947 0.99640380663 0.99679162146 0.99647183718 0.99696719176 
0.99739777827 0.99736986863 0.9969993389 0.99710535379 0.99514227946 0.99313743326 0.99301429762 0.99575370672 0.99765162079 
0.99698338353 0.9973840478 0.99735959186 0.99753030576 0.98165932103 0.98576058992 0.97452598492 0.97384362847 0.97903286386 
0.98450499231 0.99603400899 0.99906297514 0.99903555223 0.99695520114 0.99293009354 0.99491713188 0.99253273751 0.99346679444 
0.99292401806 0.99411218432 0.99574739431 0.9978283531 0.99874706982 0.99090135353 0.99501425642 0.99187196197 0.99542816594 
0.99131004792 0.98979631478 0.99234377278 0.99568511781 0.99625411288 0.99518482772 0.99614276268 0.99764900208 0.99743177639 
0.99740190324 0.99773485606 0.99824838127 0.99873245489 0.999204907 0.99944218739 0.99911053306 0.99864210561 0.99791106505 
0.99722453804 0.99704182652 0.99718803488 0.99748838134 0.99791124415 0.99656356684 0.99372214821 0.99095843099 0.9982103323 
0.99811423659 0.99724779773 0.99684970284 0.99745290161 0.99815336735 0.99886141927 0.99879417663 0.99823220376 0.9974293169 
0.99611389235 0.99541085484 0.99635390039 0.99082519239 0.98486534572 0.98891880344 0.99371713247 0.99799143595 0.99795498229 
0.99782923585 0.99722557522 0.99717669278 0.99784012978 0.99893361085 0.9994135836 0.99918216671 0.99876394423 0.99782816559 
0.99712890634 0.99672882939 0.99781415351 0.99923564686 0.9967076097 0.99368088421 0.99310930698 0.99298947066 0.99206339619 
0.99246924995 0.99796847555 0.99172798168 0.99631241459 0.99556946761 0.98967346809 0.9891553064 0.98991541495 0.99176740362 
0.99515070113 0.99904148005 0.99828391332 0.99973570377 0.99974084527 0.99964767685 0.99911306305 0.99869024953 0.9983746287 
0.99856681665 0.99914175826 0.99930528987 0.99905297588 0.99830110288 0.99863726046 0.99841241222 0.99820900589 0.99781309494 
0.9949230355 0.98880476622 0.98397481916 0.97135501293 0.95655755956 0.95060105638 0.94792326226 0.96097608481 0.99276440414 
0.99696379344 0.99623188567 0.99746825019 0.99889868067 0.99835304884 0.99781503415 0.99765392919 0.99701074035 0.99698812184 
0.9970435622 0.99583162705 0.99559319816 0.99750495603 0.99724928897 0.99711607138 0.99741188302 0.99585572248 0.99488042223 
0.99668177499 0.99746264401 0.99915180286 0.99940525027 0.99896996372 0.99894920672 0.99765168957 0.99727650263 0.99827804448 
0.99834016963 0.99056798776 0.98804098477 0.97716709869 0.96380241164 0.95563797134 0.96989243441 0.98602789882 0.99398457107 
0.99702402351 0.99820881635 0.99579677192 0.99066655407 0.98890537502 0.98738124319 0.98853386792 0.99656602862 0.9928438427 
0.99446229008 0.99511287891 0.99360001523 0.99588792046 0.99662579896 0.99741546207 0.99657879635 0.98965229973 0.98968100101 
0.99225983535 0.99473025516 0.98856383129 0.99753330407 0.99129149225 0.9973327907 0.99874866311 0.99926203315 0.99953339692 
0.99964087944 0.99976254667 0.9991624741 0.99759335285 0.9977226702 0.9976115313 0.99755034318 0.9977505231 0.99777571926 
0.9977655003 0.99756073737 0.98919075795 0.98613424541 0.99045287402 0.99636287048 0.99783234795 0.9957692959 0.99694755113 
0.99945253732 0.99834273325 0.99670745506 0.99612105936 0.99583939221 0.9966294913 0.99713960261 0.99510724892 0.98604999608 
0.97739151739 0.99080825837 0.98379751511 0.99519609229 0.99674819939 0.99710291472 0.99667070574 0.99632838543 0.99651567181 
0.99798519296 0.99932741678 0.99921302165 0.99947198803 0.99887062261 0.9982648394 0.99796931981 0.99827968609 0.99825888222 
0.99837959051 0.99795322467 0.99464071586 0.99250503246 0.99175655663 0.99230277135 0.99162899343 0.99957215201 0.99936604658 
0.99775640214 0.99712444676 0.99741258562 0.99653923718 0.99671130223 0.99573566598 0.99523675732 0.99302241244 0.99222989688 
0.99686423612 0.99721123779 0.99735747764 0.99783148462 0.99810823485 0.99832749238 0.99910326655 0.99849377351 0.99767227609 
0.98953576791 0.9893683699 0.99468009197 0.99659781665 0.9958778493 0.99530870532 0.99648481086 0.99772699348 0.99856523933 
0.99964651173 0.99939227638 0.99897976909 0.99869729516 0.99919846011 0.99937767528 0.99077119554 0.98392484357 0.97413035136 
0.9654628635 0.96054328864 0.95992739342 0.96172131401 0.98819673584 0.99459613568 0.99769619559 0.99783920807 0.9969903463 
0.99495182492 0.99085706931 0.98949523278 0.98929829453 0.97306934205 0.97945944198 0.98503355389 0.98877137007 0.99280425541 
0.99675996377 0.99879468839 0.99792060962 0.99769074718 0.98999242356 0.99010207056 0.99894874413 0.99819610894 0.99676668384 
0.99657133829 0.99115724416 0.99440969748 0.99626229936 0.99714291967 0.99723861272 0.99747535804 0.99830757923 0.99558488975 
0.98817161632 0.98796676832 0.98958080378 0.98283572549 0.99647731744 0.99610333376 0.99838893724 0.99893553642 0.99932160135 
0.99521382046 0.99243638294 0.99711735337 0.99830443119 0.98556667915 0.98396567808 0.9825482336 0.99835892045 0.99109432738 

Circumferential 3 1134 double
-0.12519363918 -0.92350451854 -0.36258234505 -0.043449418453 -0.96463415085 -0.17684594594 -0.043816657771 -0.97755029948 -0.13886580952 
-0.097253978915 -0.94733584548 -0.29775772798 0.029916227453 -0.99757648794 -0.0018789887414 0.019288731653 -0.99950339613 0.0033797021023 
0.05684652934 -0.98514358183 0.11340207308 0.052830103091 -0.99368637155 0.064930980572 0.081332972648 -0.97449490796 0.20899149303 
0.065044522713 -0.98752396808 0.14323351959 0.094660762198 -0.97199303523 0.2146689125 0.060693598335 -0.98494900586 0.16092926389 
0.10672316162 -0.96497650922 0.23566733649 0.064802157246 -0.97942870347 0.18964612935 0.11536275613 -0.94574811499 0.29810816508 
0.076300583446 -0.96253452486 0.25313291612 0.13494405946 -0.89199709339 0.40202272141 0.099177435502 -0.93354770571 0.33488457608 
0.17188929991 -0.78346041295 0.57175397857 0.14903760544 -0.85445053971 0.47486457844 0.19197946721 -0.69639976628 0.68738476436 
0.19702980446 -0.7482006767 0.62141993382 0.19443725944 -0.63180553415 0.7464201574 0.22042957515 -0.65588104797 0.71811396442 
0.20302642088 -0.59795765306 0.77527451767 0.21930263241 -0.61424100764 0.75786107761 0.21811979193 -0.59672577276 0.77211257148 
0.21342352728 -0.60995868849 0.76311678093 0.23581028558 -0.60037525429 0.76381974611 0.20748365313 -0.62710591236 0.75013847835 
0.25629687399 -0.60928007135 0.75000295175 0.20055596381 -0.65490521181 0.72778788212 0.27171491027 -0.56703714007 0.76934605135 
0.20880402177 -0.67689063894 0.70527534103 0.28034215121 -0.45626696805 0.83311644466 0.23196015825 -0.66205576947 0.70414957125 
0.28647582686 -0.34255348031 0.89113499346 0.25793323224 -0.54555660793 0.76896458169 0.28145329619 -0.21567160378 0.92341980102 
0.27769391332 -0.277269901 0.89060550088 0.27643076552 -0.088789727252 0.95570460859 0.28331177937 -0.080576529357 0.94873603985 
0.29448298757 0.10392629582 0.92538939431 0.28090927278 0.10263421309 0.93922370035 0.3140660302 0.30100987449 0.89092118208 
0.28212198311 0.27585616864 0.90911560186 0.2920734073 0.42740786805 0.84731280698 0.29417305276 0.42635863915 0.84929156604 
0.2585401907 0.53418492212 0.80116730098 0.29650476572 0.50213046012 0.80999648226 0.23362254044 0.56277129093 0.79266070364 
0.27755704498 0.51023768845 0.81378493267 0.20970285475 0.57132553784 0.7930010654 0.24700587043 0.51370468594 0.82158275882 
0.15301615953 0.64284652668 0.74603024362 0.22623913951 0.58286239376 0.77590003432 0.11933896557 0.71946342387 0.6772064035 
0.21369935576 0.67782356458 0.6967377101 0.12248129246 0.80423473554 0.57341362615 0.21268739543 0.76404131451 0.60657339776 
0.096565784459 0.86507489774 0.48424097476 0.19571143861 0.80506042943 0.55852590061 0.053000023845 0.91137880868 0.40394890266 
0.1688525166 0.83660899784 0.51956541079 0.030291802238 0.92929699814 0.36693199881 0.13163595926 0.88914364913 0.42777754156 
0.014317942065 0.94027623913 0.33983326411 0.094111522048 0.93617143528 0.3357016343 0.033679707189 0.95505542446 0.2915443893 
0.057592948423 0.96417254265 0.25691344506 0.049231854108 0.97070685123 0.22748960244 0.051914214341 0.97502498044 0.21486773794 
0.059728765516 0.98751571312 0.14251397936 0.050554126475 0.98364103974 0.17174546137 0.052406063034 0.99379474645 0.014273324032 
0.05154148416 0.99324458917 0.09132549908 0.012471350784 0.98507670572 -0.12577538681 0.013219005849 0.99196761508 -0.070565474179 
-0.071106016002 0.95659852816 -0.27674665119 -0.038138892613 0.97002317416 -0.2329255258 -0.089105728872 0.91847716186 -0.37779784477 
-0.10374684354 0.91536996804 -0.37912430498 -0.10596050196 0.88468175231 -0.45218981338 -0.16577001766 0.83652770209 -0.5140299812 
-0.12818043231 0.85738515087 -0.49790370026 -0.18087574291 0.78485359952 -0.59094232497 -0.17501172905 0.81751614098 -0.54422568883 
-0.17955614538 0.76224647086 -0.62038977335 -0.21787781942 0.77854854304 -0.58824066717 -0.183283537 0.73876590687 -0.64828907681 