# vtk DataFile Version 5.1
vtk output
ASCII
DATASET POLYDATA
POINTS 1143 double
16.923044205 24.789941788 21.897886276 16.621279595 25.184296174 23.307202002 17.386434356 26.316357363 23.0605618 
17.718849725 25.889163228 21.813558709 16.78780562 25.308552766 24.678189687 17.578765481 26.44189445 24.433776693 
17.448534135 25.147766282 26.00872853 18.280854509 26.272979584 25.665422751 18.397933078 24.74486765 27.039311028 
19.116495921 25.913877881 26.741199651 19.480466045 24.230307547 27.931554466 20.143435785 25.470139366 27.714188789 
20.537609735 23.753162296 28.870695321 21.172899621 25.070483997 28.746164691 21.561596904 23.324878076 29.871080738 
22.194605504 24.598920805 29.76993265 22.555666892 22.894632829 30.900295437 23.188378395 24.160411593 30.819192726 
23.586714109 22.43782408 31.879389726 24.240969238 23.713288616 31.781822149 24.687766339 21.930859191 32.74895618 
25.30339461 23.244097977 32.731050876 25.786013125 21.424643238 33.624613109 26.399698345 22.747846638 33.626400411 
26.963016991 20.883188029 34.351119845 27.51713439 22.21203742 34.47408208 28.223107503 20.285476412 34.883138252 
28.719314806 21.614599261 35.167978733 29.519520252 19.654167123 35.268798272 30.009543029 20.972195862 35.684769301 
30.838609368 19.016843486 35.561066992 31.374943348 20.318767107 35.997923709 32.167895767 18.365011946 35.754448291 
32.785521706 19.681379132 36.099838516 33.502783623 17.714537043 35.741321454 34.18806276 19.071940449 35.940505486 
34.803112107 17.083101925 35.428310332 35.520840707 18.453363828 35.532886395 36.012567333 16.483436554 34.789623664 
36.766361769 17.846439532 34.91846905 37.204744919 15.991103636 34.035257057 37.932100063 17.289503168 34.11037327 
38.216454092 15.485955637 33.070924985 39.005682824 16.743085209 33.187922158 39.216424006 14.943976379 32.107899957 
40.006646877 16.207382672 32.191801268 40.285180283 14.351654402 31.247863463 40.946740658 15.6807307 31.146694336 
41.093404984 13.818941137 30.135367022 41.774535132 15.174395955 29.993578459 41.787930954 13.312402753 28.913541039 
42.521994226 14.67595162 28.789167922 42.074896721 12.936995471 27.49598395 42.84994272 14.31217158 27.324527831 
42.221481678 12.626127319 26.062013557 43.021208922 13.984823612 25.829692782 42.028760956 12.471252662 24.588371592 
42.893266644 13.807634762 24.338591406 41.706995971 12.492222311 23.140961701 42.53812862 13.797875153 22.857298759 
41.294907972 12.636272113 21.711912642 42.052589826 13.919823485 21.453857646 40.559569772 13.028646893 20.487033129 
41.294261805 14.214628616 20.178627506 39.754393031 13.463861762 19.310792273 40.415463054 14.520945177 18.99967027 
38.462695089 13.800920338 18.639483087 39.252292868 14.868531771 18.125447814 37.156696114 14.148739802 18.025301971 
37.960941975 15.221078177 17.379899817 35.735305374 14.583386406 17.872074126 36.514801151 15.645737845 16.953690479 
34.325421395 15.050298043 17.799306294 34.936113771 16.052025309 16.840850966 32.948149526 15.608654256 17.954575785 
33.487575554 16.537186462 16.919052838 31.678751108 16.210310403 18.414121576 32.124169756 17.148366153 17.24160542 
30.444111065 16.842308577 18.959842204 30.797587557 17.775481969 17.610239727 29.147271513 17.513896029 19.254307193 
29.491994299 18.456987256 17.931812831 27.845903483 18.216652933 19.420068401 28.201867351 19.178516276 18.200467583 
26.565041356 18.945323251 19.637677102 26.956296744 19.964194072 18.470996142 25.257266061 19.664391988 19.66042889 
25.710844749 20.760398645 18.682472337 23.938493295 20.365758749 19.630752556 24.446272594 21.520735179 18.869080629 
22.618337696 21.064198958 19.605685251 23.223427141 22.303633267 19.146837702 21.331427572 21.823464833 19.594471876 
22.02252692 23.021796109 19.453167872 20.080072342 22.589162932 19.766903186 20.844993614 23.754885058 19.840246039 
18.880309502 23.364194592 20.205814488 19.678953926 24.497220269 20.280445041 17.850004479 24.091592912 20.956715954 
18.676096764 25.21675935 20.982123069 28.125152588 43.746444702 12.530929565 29.067753536 42.960195901 11.687280221 
28.143724316 41.761583237 11.908351417 27.237195961 42.563308706 12.807791481 30.010354484 42.173947101 10.843630877 
29.080965145 40.962668188 11.058759405 31.094769027 41.379432045 10.206611977 30.1626243 40.133381172 10.400664471 
32.191421236 40.584203661 9.5874240501 31.268608804 39.304147404 9.8154982598 33.334831652 39.734191282 9.1578597103 
32.447152993 38.448970348 9.4151017421 34.482797724 38.878278894 8.7481120583 33.624123228 37.59249217 9.0458251298 
35.631647302 37.991667333 8.412713002 34.781815127 36.728484371 8.6405441053 36.777997049 37.119495393 8.0398116255 
35.94393132 35.870254003 8.2358898705 37.917298587 36.288035611 7.5611733725 37.089483658 35.040940788 7.7236178165 
39.09159043 35.497393157 7.1012721492 38.2786071 34.23688115 7.2591046722 40.296560431 34.74253777 6.6577988351 
39.509245561 33.465062297 6.8511482627 41.590672692 34.061373987 6.5479417359 40.812994372 32.733939677 6.6151443884 
42.933152974 33.420194799 6.6191026733 42.163951605 32.046562397 6.5741953635 44.248442711 32.794898053 6.8772580859 
43.52656309 31.370986883 6.7989302586 45.540442121 32.183205567 7.2955854287 44.849305861 30.738736017 7.2274093618 
46.832392097 31.585044371 7.7312086035 46.16580546 30.150726072 7.7314375426 48.124164853 31.035392481 8.2288368659 
47.43339888 29.631796885 8.374545784 49.415937608 30.485740591 8.7264651282 48.717445057 29.130252626 8.9323908564 
50.601456885 30.109904492 9.5170105687 49.880200416 28.775172352 9.8131821881 51.74795008 29.797909591 10.415142227 
51.02327191 28.48385889 10.725700041 52.814956609 29.583099465 11.378752261 52.088497763 28.319477567 11.762883274 
53.464766881 29.878376455 12.686034192 52.88668029 28.435255612 12.990628381 54.114577154 30.173653446 13.993316124 
53.632053717 28.637061491 14.253440222 54.637786793 30.480980507 15.346941523 54.098944444 28.938134102 15.658014771 
55.037109267 30.800099366 16.745917096 54.446248608 29.257069043 17.078251337 55.277080032 31.134900332 18.155368365 
54.606343753 29.608810425 18.521362981 55.132126992 31.507582387 19.590124317 54.525964939 29.998373472 19.957764903 
54.977902407 31.869758365 21.02602427 54.384713303 30.371662654 21.396777883 54.745686113 32.143557819 22.471547494 
54.148472848 30.740186873 22.820606101 54.515698303 32.435708589 23.912964176 53.938125331 31.107131509 24.246783968 
54.301242885 32.85576684 25.325758527 53.715629217 31.526793961 25.654414135 54.062509878 33.294686675 26.727987915 
53.446356095 31.977023382 27.045132227 53.765502777 33.778880434 28.104857962 53.113398185 32.453074565 28.406324483 
53.323935796 34.275986926 29.431533811 52.627741806 32.974124999 29.706746228 52.782683333 34.781997771 30.723596789 
52.066172531 33.523925956 30.961313234 52.205089116 35.390875031 31.953806666 51.45791725 34.130211691 32.163747999 
51.652684324 36.037366163 33.17512211 50.863347309 34.770887802 33.352940458 51.153648333 36.750282891 34.383898665 
50.307240202 35.437965713 34.544921044 50.534638729 37.475577116 35.522397282 49.641132646 36.156836802 35.644449571 
49.835439462 38.209144389 36.613922536 48.922198055 36.879600919 36.704036264 48.952260025 38.972141831 37.528602237 
48.047692902 37.650242849 37.601934962 48.014384999 39.743888589 38.390707403 47.125480594 38.405838907 38.454026624 
46.899754435 40.512503651 38.997626061 46.033283151 39.196688461 39.047199614 45.754114454 41.280569298 39.559775628 
44.916203973 39.964800619 39.609009379 44.525346132 42.054555958 39.876052011 43.70877039 40.750215526 39.925164173 
43.284897428 42.829374581 40.157780702 42.498524692 41.528037442 40.220321854 42.042916951 43.645625153 40.232801053 
41.264061088 42.321936554 40.307022827 40.800797954 44.465622431 40.289128693 40.037688028 43.109963635 40.37799598 
39.547739202 45.22843535 40.045942761 38.798912226 43.872427384 40.169673705 38.293828664 45.986795811 39.779436263 
37.561596605 44.615897982 39.950669078 37.054377932 46.666050008 39.314213702 36.341193205 45.292881972 39.489637413 
35.816302707 47.337779117 38.830088014 35.111329702 45.913807951 39.005862633 34.607716229 47.773046255 38.092735797 
33.907126982 46.405408947 38.322771554 33.405129786 48.160200798 37.303859922 32.718113927 46.792907833 37.557106982 
32.226334687 48.421132868 36.438104018 31.527417928 47.10330807 36.749695691 31.059485037 48.618689617 35.533747249 
30.352087404 47.354441515 35.886411872 29.960646294 48.823202483 34.558513556 29.214485596 47.590621437 34.952888362 
28.988573696 49.040680918 33.451171723 28.257381367 47.739478616 33.837959735 28.047419176 49.226999718 32.320106205 
27.310332839 47.906259412 32.721804079 27.337650121 49.180125286 31.011496784 26.565633637 47.890457632 31.421085703 
26.627881066 49.133250853 29.702887363 25.827102075 47.878903037 30.121311968 25.923011338 49.050422055 28.393417315 
25.212317592 47.771873538 28.762275579 25.218194368 48.967206084 27.083937998 24.587209025 47.676710934 27.421249865 
24.844764266 48.730769003 25.672505147 24.226013357 47.456787187 25.989189278 24.54267387 48.461347064 24.239124126 
23.982776969 47.191809072 24.55160033 24.523083842 48.128681334 22.804169749 23.927551855 46.87000441 23.107400481 
24.66624706 47.759579785 21.368308934 24.052410915 46.487726822 21.688379351 24.900380908 47.341367111 19.964939797 
24.235048732 46.079235037 20.285420795 25.283734062 46.842597362 18.614866822 24.568188224 45.594181783 18.93606449 
25.68903261 46.334494672 17.276136006 24.922013041 45.104274785 17.591820202 26.213679742 45.775635399 15.999088771 
25.381988471 44.559090226 16.298165983 26.749656355 45.204940425 14.734225301 25.860471297 43.99485658 15.024393465 
27.437404472 44.475692564 13.632577433 26.553304885 43.279750452 13.915072551 17.882544227 27.861599187 24.307912375 
17.7827876 27.595922375 22.728843971 18.472159745 27.62379861 25.767821629 19.321370129 27.260496031 26.952159375 
[...]
POINT_DATA 1143
FIELD FieldData 21
Circ_Strain_Pt 1 1143 double
0.98658346479 0.9607185861 0.93583460309 0.96771712358 0.95981811147 0.94129467938 0.98526325861 0.97449975216 0.99336521637 
0.99002368487 0.99346854214 0 0.99535898535 0.99484473182 0.99958327195 0.99964464027 0.99985048459 0.99930521988 
0.99853828035 0.99947591452 0.99763559639 0.99947513193 0.99638985012 0.99917906871 0.99593856664 0.99899907181 0.99685147518 
0.99920716927 0.99849996336 0.99920826685 0.99947596884 0.99812503282 0.99918181563 0.99564029354 0.99779590106 0.99449748942 
0.99673691163 0.99622875168 0.99772319506 0.99825304927 0.99707031589 0.99855372787 0.99466369092 0.99896520413 0.99228161962 
0.99924265014 0.99078068544 0.99786083026 0.99227745488 0.99643722615 0.99504650963 0.99518334417 0.99404892615 0.99492838468 
0.9935773279 0.99506212874 0.99437705564 0.99532622375 0.99492730132 0.99502794431 0.99530292497 0.99452257659 0.99349811428 
0.99477827297 0.99128011904 0.99452382732 0.9883078234 0.99344242885 0.98595619862 0.99172280452 0.98861262441 0.98754305448 
0.98909173161 0.98593704155 0.98339994872 0.98765032161 0.98187307418 0.99276224064 0.98540544805 0.99708456759 0.99696066962 
0.99955502685 0.99600729621 0.9994763193 0.99558369625 0.99948700972 0.99493373469 0.99913280886 0.99551040729 0.99758081334 
0.99597487918 0.99751620011 0.99472340819 0.99682887291 0.99277238858 0.99525047805 0.9898062799 0.98949035211 0.98787831393 
0.98912253786 0.99764699673 0.99808108457 0.9970726389 0.99688473605 0.99851517241 0.99771889725 0.99844298621 0.99764944097 
0.99832711159 0.9976066797 0.99868892974 0.99791649909 0.99908649859 0.99863906351 0.99892391975 0.99922899174 0.99826140099 
0.99891873965 0.99618931298 0.99854243751 0.99462465761 0.9980198195 0.99350489979 0.9970608199 0.994442488 0.99567885758 
0.99649637893 0.99529120908 0.99712443613 0.99567891791 0.99653118153 0.99625975874 0.99572063984 0.99687389788 0.99413112981 
0.99679817866 0.99254161977 0.99489518544 0.98010482239 0.99204288695 0.96368390011 0.98698076108 0.95262323468 0.98321639461 
0.96969658466 0.9833759087 0.98676993464 0.98895897142 0.994641599 0.99213049518 0.99350880024 0.99346536759 0.99366250752 
0.99416667365 0.99692384892 0.99643698511 0.99983391977 0.99848318306 0.9997892558 0.99963481426 0.9996835806 0.99968405467 
0.99915264409 0.9994959687 0.99865436973 0.99881979487 0.9982344951 0.99821887408 0.99869349447 0.99843971478 0.99975854704 
0.99948373985 0.99907232626 0.99953466114 0.99836254724 0.99908647801 0.99775358466 0.99863535747 0.99738111879 0.99842572263 
0.99716672592 0.99819081583 0.99728409732 0.99748233383 0.99750009913 0.9973375132 0.99797837487 0.99769995832 0.99850266308 
0.99826727813 0.99853759514 0.99852904214 0.99850376767 0.99851643758 0.99824976302 0.99820870151 0.99797584766 0.99779020686 
0.99789337458 0.99759965136 0.99782580747 0.99782383877 0.99751121141 0.9981704304 0.9971731164 0.99830371207 0.9980795123 
0.99862839518 0.99923912308 0.99887293872 0.99884999171 0.99835558438 0.99768324896 0.99766155357 0.99665092993 0.99705583041 
0.99586916446 0.99718895587 0.99519177132 0.99723493237 0.99529548233 0.99686625505 0.99539919333 0.99613539786 0.99377894193 
0.99532051672 0.99214012608 0.99464096363 0.99339139566 0.9950762745 0.99526483185 0.99645932144 0.99679217647 0.99717678342 
0.99812013187 0.99759278549 0.9989708547 0.99814360287 0.99903877198 0.99891322431 0.99898495368 0.9988213796 0.99826908448 
0.99826655639 0.99760442085 0.99732805881 0.99762570878 0.99691469169 0.94684061756 0.92469417537 0.98299362826 0 
0.99589216804 0.99929767734 0.99892322104 0.99891330791 0.99959812574 0.99970015739 0.99904932299 0.99846450435 0.99812740581 
0.99809316636 0.99831132877 0.99886847838 0.99883035045 0.99813150922 0.99817405871 0.99874563381 0.99920182842 0.99801690225 
0.99648386308 0.99556689454 0.99518403989 0.99475897637 0.99599118654 0.99721207209 0.99738319454 0.99646462223 0.99575442094 
0.9948273421 0.99105696751 0.98946163832 0.99190526133 0.99143101214 0.99618992829 0.9981396489 0.99871446026 0.99933624772 
0.9995717737 0.99982787543 0.99975288453 0 0 0.999256703 0.99795205195 0.9949100954 0.9882597415 
0.9422185083 0.99769674833 0.99736768405 0.99751192141 0.99669559171 0.99669128831 0.99758129185 0.99844296113 0.99914698186 
0.99867045207 0.99780861657 0.9963258928 0.99503725067 0.99408353498 0.99458601126 0.99650428373 0.99773887323 0.99691051744 
0.99625172132 0.99304756158 0.98969312367 0.98685321836 0.98821450608 0.98932182773 0.99035473581 0.99275247581 0.99511503006 
0.997262198 0.99948249784 0.99966217735 0.99968378067 0.99932981049 0.99883560367 0.99860117343 0.99889832845 0.99944843434 
0.99965119659 0.99932354362 0.99889832459 0.99865031844 0.99815784846 0.99759640563 0.99746692078 0.9977604428 0.99823624121 
0.99867454957 0.99879971516 0.99854350012 0.99808731867 0.99770018687 0.99746167301 0.9978299141 0.99823356841 0.99869533034 
0.99884224417 0.99776476285 0.99650555774 0.99559511023 0.99522785647 0.99650171392 0.99774434861 0.99824337203 0.9975875938 
0.99684578008 0.9969561363 0.99735032994 0.99759488008 0.99792972109 0.99815598041 0.99756890072 0.99701113418 0.99614214037 
0.99523438594 0.99575770971 0.99680996455 0.98941257635 0.97455418949 0.99477869611 0.99781849869 0.99883647173 0.99895849726 
0.99910844603 0.99932097489 0.99920139723 0.99904861185 0.99893015114 0.99876223092 0.99864872397 0.99799257038 0.99762672891 
0.9981591597 0.99814674466 0.99837448892 0.99885758034 0.99895473037 0.99893151253 0.99804993544 0.99798863421 0.99691569695 
0.99528075641 0.99481870234 0.99602184683 0.99714456253 0.99781090918 0.99675795833 0.99565564041 0.99479585244 0.99443250302 
0.99378707682 0.99792375171 0.99704092485 0.99810493633 0.99885887109 0.99927399596 0.99938425735 0.99967782474 0.99984715122 
0.99985297195 0.99953152959 0.99876650561 0.99724655307 0.99600104815 0.99043578321 0.97586152263 0.9657938479 0.99475673553 
0.99336628052 0.99820300399 0.99813473543 0.99750979285 0.99641034168 0.9961693477 0.99740417356 0.99885072955 0.9993897308 
0.99937701686 0.99852116982 0.99591551868 0.99405324083 0.99368595481 0.9947931929 0.99634207911 0.99731394253 0.99698602166 
0.99547167964 0.99397025788 0.99192359407 0.99074409304 0.99116473765 0.99202266135 0.99396267616 0.99559400468 0.99719436998 
0.9985777489 0.99922107896 0.99951706891 0.9997450361 0.99962831119 0.99941169521 0.99926732628 0.99916439822 0.99952169074 
0.99949998239 0.99929237848 0.99914133762 0.99899656777 0.99812502775 0.99762441363 0.99764713557 0.99816864415 0.99843668138 
0.99852112567 0.99884744864 0.9984371421 0.99781024374 0.99750157799 0.99719322102 0.99740647711 0.99808186142 0.99749435071 
0.99657097482 0.99586058423 0.99517678955 0.99584655683 0.9970815067 0.99767966204 0.99790872274 0.99796589218 0.99784196022 
0.9977347131 0.99806171834 0.99811756341 0.99776726974 0.99685046132 0.99715235374 0.99762908483 0.99659805749 0.99552249637 
0.99555723332 0.9959006713 0.99695331671 0.99415411858 0.9944696151 0.99503600661 0.99701867888 0.99852341943 0.99930117644 
0.99934675444 0.99940726856 0.99954974132 0.9996961196 0.99974824441 0.99968315219 0.99919722669 0.99885398895 0.99771865897 
0.9970362729 0.99649737691 0.98996894376 0.98451840303 0.99354618476 0.99171565611 0.9954960707 0.99778676683 0.99877397013 
0.99908390896 0.99910635932 0.99811069971 0.99830058466 0.99948340647 0.99949241325 0.99908610897 0.99856890072 0.99809756239 
0.99766158577 0.99741311747 0.99813961312 0.99874249926 0.99878124954 0.99884951756 0.99907603747 0.99921169161 0.99912136346 
0.99774583797 0.99648662552 0.99687687108 0.99772469154 0.99748187661 0.99727843104 0.99619498267 0.99467384677 0.9930722733 
0.99282599061 0.9936952445 0.99350429828 0.99530212972 0.99410266446 0.98911824999 0.98993038085 0.99815544828 0.9983796703 
0.99765531103 0.99702773604 0.99787163027 0.99911264059 0.99961122222 0.99947511796 0.99915159816 0.99799282526 0.99522276637 
0.99381872444 0.99372438712 0.99538438976 0.99769616654 0.9968910477 0.99565903345 0.9934965621 0.99270316027 0.99192061613 
0.99187162483 0.99289957509 0.99438261235 0.9955613221 0.99686170928 0.99763918006 0.9988151849 0.9992983248 0.99945340186 
0.99961203198 0.99950065967 0.99921340445 0.99912877633 0.99942464674 0.99953532702 0.99938737408 0.99896098622 0.99839923819 
0.99758675762 0.99692907473 0.99735806787 0.99791511996 0.99820380009 0.99859774031 0.99874226431 0.99820139108 0.99765137025 
0.99728809667 0.99703021063 0.9973129473 0.99780571147 0.99849432632 0.99877589007 0.9980913224 0.99730941829 0.99727681911 
0.99683061642 0.99680207831 0.99696208726 0.99726829 0.9977052195 0.99807520308 0.99773109267 0.99759064478 0.99721846609 
0.99683728275 0.99682452075 0.99696335588 0.99655810341 0.99587377322 0.99571110655 0.99609875717 0.99708721692 0.99788426616 
0.99741587781 0.99931214401 0.99887617049 0.99922887664 0.99944538304 0.99955021787 0.99967822899 0.99972773151 0.99970088795 
0.99941672814 0.99894461893 0.99893521882 0.9985534559 0.99741477983 0.99540688054 0.99335305572 0.98974611672 0.99135097947 
0.99419669147 0.99092684917 0.99185416371 0.99463179901 0.9967761455 0.99888402455 0.99957104465 0.99955244594 0.99911577103 
0.99934988978 0.99962750917 0.99956304252 0.99919359792 0.9989459359 0.99837708281 0.99830423148 0.99830906847 0.99882324558 
0.99887352232 0.99877486534 0.99874670186 0.99852927809 0.99816200568 0.99826540869 0.9985859939 0.9983785085 0.99787715247 
0.99843517007 0.99843942162 0.9977199655 0.99674553244 0.99359076286 0.99638880301 0.99504629336 0.99372803658 0.99323763089 
0.99291334001 0.99593438439 0.9924976441 0.99890262541 0.9983416825 0.99803531119 0.99899364494 0.99842445903 0.99909173198 
0.99956585001 0.99967700995 0.99942040433 0.99892924689 0.9974622665 0.99446405637 0.99178424484 0.99215936917 0.99395574723 
0.99603154988 0.99747968359 0.99548842665 0.99393378374 0.99383145687 0.99409130018 0.99442191733 0.99564057384 0.9969534617 
0.99750517091 0.9979904685 0.99857297232 0.9990614469 0.99920919724 0.99918724178 0.9993325061 0.99929194213 0.99900464106 
0.99872092152 0.99912220476 0.99946413081 0.99939513419 0.99924526248 0.99894348769 0.99826839066 0.99746236364 0.99727461023 
0.99775477025 0.99831362644 0.99865845374 0.99870746968 0.99846922969 0.99802503681 0.99761556875 0.99719061302 0.99733144698 
0.99780594474 0.99839109063 0.99882725759 0.99875579582 0.99853647679 0.99799158816 0.99721418793 0.9968907899 0.99685724069 
0.99706789717 0.99706094417 0.99731318721 0.99832777879 0.99861931303 0.99750138065 0.99693248551 0.99681834993 0.99673034376 
0.99629173212 0.99572068185 0.99537766319 0.99594753645 0.99669432036 0.99818283596 0.99935232988 0.99893072498 0.99838935838 
0.99919085044 0.99936078356 0.99944999444 0.99960854252 0.99987055074 0.99972849175 0.99914488269 0.99863368835 0.99797126815 
0.99705993725 0.99617398747 0.995060713 0.99484292631 0.99445625495 0.99595411821 0.99625658892 0.99634182101 0.99579465781 
0.99404979583 0.99571752462 0.99551976036 0.99519687245 0.99644169598 0.99803742533 0.9989693804 0.99948886129 0.99945893529 
0.99972789147 0.99968192414 0.99944958816 0.99904677109 0.99800136683 0.9975147439 0.99752900783 0.99847558953 0.99838817507 
0.99760719968 0.99926917796 0.99914248938 0.99903078964 0.99895955967 0.99917110899 0.99915960827 0.99894867577 0.99872105073 
0.99881017257 0.99897982906 0.9985148352 0.998647817 0.99800239104 0.99707445451 0.99655465072 0.99495583806 0.99681564144 
0.99782126492 0.99429474534 0.99494039207 0.99876811297 0.99862858609 0.99928420411 0.99958236476 0.99965265148 0.99979034328 
0.9970922906 0.99456094517 0.99135505269 0.98876542675 0.98982305418 0.9919693833 0.99605402371 0.99741010985 0.99644622833 
0.99516575767 0.994590605 0.99415698633 0.99799615564 0.99684359534 0.99830713855 0.99858044826 0.99896770637 0.99921912603 
0.99897673919 0.99889808417 0.9989884691 0.99904894113 0.9987600155 0.99845548617 0.99856182511 0.99921183866 0.99941883776 
0.99951897198 0.99874260075 0.99784523963 0.99754929587 0.99781782215 0.99815234186 0.99847135191 0.99863439769 0.99813536099 
0.99744668353 0.99722907702 0.99705937492 0.99696549194 0.99743894469 0.99788709989 0.99832471586 0.99865461382 0.99845310989 
0.99771762182 0.99694242288 0.99617446473 0.99594522945 0.99653727534 0.99734806777 0.99791798012 0.99823056412 0.99819587243 
0.99805044362 0.99771900415 0.99723903035 0.99696985278 0.99711070005 0.9971502627 0.99682682983 0.99649852533 0.99646074927 
0.99643235343 0.99754392094 0.99866598941 0.99898854012 0.99680945902 0.99441407313 0.99242835736 0.99171324324 0.99457440925 
0.99302507408 0.99857756567 0.99785654478 0.99892126916 0.99912433944 0.99937401702 0.9995803765 0.99966549062 0.99976118198 
0.99974803189 0.9991768865 0.99771971083 0.99669280407 0.9955330223 0.99602496863 0.99571569814 0.9957847049 0.99621583087 
0.99678232651 0.99673852172 0.99735504805 0.99580696307 0.99615984367 0.99511184059 0.99394854553 0.99372627764 0.99592472633 
0.99891403531 0.99964675105 0.99963425758 0.9997268303 0.99974893288 0.99925707784 0.9994688899 0.9989580455 0.99893576171 
0.99853842208 0.99968377374 0.99973568886 0.99959199368 0.9996084695 0.99956462183 0.99960726758 0.9997269474 0.99880555958 
0.99519016717 0.98858317582 0.99108576179 0.99493107836 0.99639114294 0.99632413074 0.99882534577 0.99901496043 0.99794483888 
0.99699759064 0.99690492212 0.99827239953 0.998982567 0.99941080612 0.99926296956 0.99908560787 0.99871345793 0.99859343014 
0.99880011868 0.99901787276 0.99905157734 0.99837018031 0.99807026605 0.99903200141 0.99943820772 0.99916082764 0.99884688358 
0.99846167201 0.99763858321 0.99631143962 0.99852430139 0.99743052311 0.9993254551 0.99949383625 0.99890998159 0.99875734817 
0.99869074915 0.99845446008 0.9984536682 0.99911530104 0.99959387742 0.9997078672 0.99866568374 0.997983896 0.99757018631 
0.99740136413 0.99718229125 0.99772692533 0.9984133261 0.99850965005 0.99849919534 0.99820397153 0.99739743645 0.99697509674 
0.99710345565 0.99767879636 0.9982350385 0.99845890896 0.99862421501 0.99862525644 0.99870287609 0.99707395732 0.99527040748 
0.99499692659 0.9957325023 0.9968474381 0.99766699482 0.99783201324 0.99795927992 0.99787465598 0.99729814368 0.99646902707 
0.99634240575 0.99673408699 0.99701164933 0.99702417195 0.99684983041 0.99684020163 0.9969059548 0.99725349509 0.99791614289 
0.99893405432 0.99957992356 0.99817512008 0.99763500923 0.99645916168 0.99657112858 0.9972167296 0.99800769653 0.99909366738 
0.99933205615 0.99952150778 0.99969495548 0.9994520273 0.99881650199 0.99833661168 0.99793373488 0.99817214345 0.99846062727 
0.99929338482 0.99806579066 0.99594709053 0.99592934075 0.99670220095 0.99773329826 0.99837326881 0.99799412221 0.99739358713 
0.99821158144 0.99833881209 0.9983617864 0.99811025866 0.99887585278 0.99861054656 0.99854029109 0.99822084952 0.99774622065 
0.99695165988 0.99553317712 0.99552024968 0.99653995666 0.99707392961 0.99734839088 0.99774996249 0.99772995055 0.99708847838 
0.99613156358 0.99620649169 0.99646908288 0.99639799858 0.99609605072 0.99632013626 0.99727397131 0.99849750242 0.99943380754 
0.99983552275 0.99980476899 0.9997284257 0.99959818153 0.99955328331 0.99960712831 0.99942394348 0.99787541151 0.9974767262 
0.99679944461 0.99561435687 0.99440163648 0.9942297807 0.99459061353 0.9958922214 0.99723529896 0.99881985058 0.99941462386 
0.9996232421 0.99980783327 0.99975747744 0.99960763124 0.9996152769 0.9992979332 0.99922981199 0.99877071836 0.99840711545 
0.99698305919 0.99658641585 0.99621463645 0.99553232281 0.9948472258 0.99706634512 0.99848533923 0.99936897257 0.99636985878 
0.99784275881 0.99950369201 0.99967836821 0.99954399528 0.99848400544 0.99937515301 0.99907173383 0.99897507022 0.99867371139 
0.9983438494 0.99786581313 0.99769245806 0.99706028733 0.99714113144 0.99850556248 0.99758437751 0.99824625438 0.99744792802 
0.99633955086 0.9991607374 0.99764664132 0.99563735259 0.99637849325 0.99489501477 0.99556391547 0.99518701218 0.99470662958 

Circumferential 3 1143 double
0.33605010908 -0.55449366866 -0.76131931251 -0.18070706007 -0.12091120209 -0.84582350131 -0.18465387497 -0.14901674587 -0.75744400708 
0.56068623766 -0.41574212488 -0.61560061317 -0.38761438417 0.18858848605 -0.8857306337 -0.5841703034 -0.038034123021 -0.80608429692 
-0.26752634173 0.36713950472 -0.87857251881 -0.61294924963 -0.081747067143 -0.77933677228 -0.32739687158 0.43002648104 -0.82447642855 
-0.67587191319 -0.11016862782 -0.72101993486 -0.4702638105 0.4395695123 -0.74873266975 0 0 0 
-0.58218017797 0.40326426351 -0.70112444906 -0.74853103517 -0.096092603955 -0.65111235224 -0.65367738511 0.30708454725 -0.6902591631 
-0.73263483062 -0.0043421624743 -0.67940752249 -0.68174713792 0.28435298935 -0.67383575727 -0.72820406523 0.090655927409 -0.67890542787 
-0.71648825603 0.29831026155 -0.62940294341 -0.74409746157 0.18116239971 -0.64209045056 -0.74314299036 0.31400545579 -0.59065902498 
-0.743874895 0.27745728033 -0.60685998548 -0.75683100533 0.33548081508 -0.5605475332 -0.73823455994 0.34242077678 -0.57997620728 
-0.7876313469 0.40555159427 -0.45705571792 -0.76127428631 0.40793119469 -0.50227356526 -0.79950454799 0.49716604504 -0.33039765449 
-0.79033723937 0.46788184557 -0.39178648307 -0.79574514278 0.56791014668 -0.1990244044 -0.80919696203 0.52529879271 -0.2522410122 
-0.77234900769 0.6259015285 -0.091659342705 -0.81430673934 0.56487859643 -0.11002497593 -0.76542912141 0.64078785899 0.0081575964251 
-0.80551319282 0.58538388976 0.03247230631 -0.76533158276 0.61874462167 0.14423028502 -0.78049002523 0.59465333679 0.17927207967 
-0.73473986551 0.59299849897 0.31428260482 -0.72979843851 0.60535533055 0.31463129156 -0.65068275809 0.59046550035 0.47608060192 
-0.67283247839 0.59188726079 0.44039273903 -0.59966622882 0.56085617563 0.56809951548 -0.61231582315 0.57482923609 0.53830505072 
-0.53293920215 0.56143603231 0.63013915401 -0.56289620124 0.54914931561 0.61547591809 -0.50895408811 0.51867862509 0.67957374794 
-0.52754835393 0.51825969371 0.67264814876 -0.55809921554 0.39491405842 0.72408838321 -0.51337223053 0.4847634749 0.70748675043 
-0.48731238989 0.35844798473 0.78744112705 -0.452948949 0.42221713806 0.77740096188 -0.36480421553 0.35911323488 0.8588755806 
-0.36575161519 0.34582700593 0.86288195531 -0.20009369448 0.26893793357 0.92698039797 -0.2023195654 0.26404197218 0.9309318892 
-0.034322134244 0.18486062578 0.97516911478 -0.038580063145 0.187123167 0.97481867392 0.13401399745 0.11552239685 0.9752198702 
0.12284018557 0.11149576597 0.97790720554 0.2845346714 0.035579243668 0.94772095366 0.28346594993 0.025774077907 0.94970014962 
0.42258562554 -0.051786701335 0.90093896874 0.42990359179 -0.057675762246 0.89773844833 0.55612506527 -0.1431585533 0.79890389452 
0.54373778269 -0.15594947299 0.81637554039 0.6870490855 -0.23559749699 0.68637282669 0.65336375418 -0.26139467625 0.7050945748 
0.73956354225 -0.34286636313 0.55360433777 0.69801424246 -0.33756464752 0.62333269681 0.78547628275 -0.44733175044 0.42352535424 
0.73012140654 -0.41972873766 0.53212261642 0.77812129132 -0.52917651107 0.31514737187 0.73889926838 -0.48746662777 0.45241614044 
0.78102382176 -0.58133616814 0.16652234104 0.746701199 -0.56089162729 0.34354767946 0.81299790853 -0.54936320807 -0.096169649714 
0.74583640114 -0.61965452213 0.2408458473 0.77862116004 -0.60759327626 -0.099861937973 0.74749737069 -0.64157134809 0.16329921867 
0.74564863785 -0.66409941913 -0.0096380002403 0.77180294994 -0.62744449378 0.085333352959 0.81967696504 -0.57058657889 -0.026454711492 
0.81435910128 -0.57769362245 -0.00054621938501 0.84628322609 -0.52026367532 -0.10979510883 0.83297456634 -0.53902972039 -0.10990457483 
0.86291773764 -0.49249047057 -0.10601309266 0.84337056829 -0.48657958761 -0.21913094572 0.82106010395 -0.56302687398 -0.024017892979 
0.86922602934 -0.39126035555 -0.2914921873 0.69134678243 -0.70532482834 -0.028410209133 0.88554631685 -0.33543176432 -0.30819461283 