# vtk DataFile Version 5.1
vtk output
ASCII
DATASET POLYDATA
POINTS 1161 double
64.732688904 43.201011658 69.427497864 64.686926147 43.137029647 67.838440454 66.000913435 43.759195712 68.013313408 
65.930292486 43.741877994 69.550406284 64.624711727 43.11206378 66.252259873 66.01062409 43.813737368 66.458578987 
64.463591335 43.321659588 64.683374538 65.90855963 44.095456531 64.946664785 64.334095297 43.564746138 63.120004235 
65.836699077 44.412802282 63.445787084 64.370709687 43.983746525 61.585602254 65.809088782 44.840935162 61.991656888 
64.436145157 44.513270003 60.10183894 65.820572716 45.388105427 60.609713214 64.584776017 45.361831208 58.764250017 
65.903578949 46.14393667 59.387578897 64.779237683 46.338131928 57.538235726 66.060672909 47.046340322 58.278119303 
65.028936571 47.468389703 56.446695894 66.263882889 48.135085394 57.306250485 65.305800524 48.779515398 55.608591664 
66.49167446 49.32576809 56.418773365 65.573316837 50.15469126 54.861032276 66.6535965 50.585489464 55.598656475 
65.352936529 51.59908334 54.231385219 66.549498287 51.957830296 54.914010095 65.042485069 53.023978368 53.602133222 
66.334580004 53.352123907 54.325962053 64.665205309 54.453394981 53.028254954 66.102559742 54.766222404 53.807194097 
64.39026865 55.98190826 52.701071583 65.909740501 56.229755941 53.436822275 64.185065066 57.559361781 52.723196516 
65.71677885 57.748832272 53.351479488 64.059259827 59.132174343 52.927463664 65.611813148 59.2802906 53.352692638 
63.976766406 60.711465494 53.100127243 65.525792641 60.821504489 53.418007725 63.882091968 62.293759212 53.2297221 
65.439547373 62.362886913 53.55703173 63.766768936 63.877996102 53.320195598 65.354820009 63.887904073 53.78517466 
63.715240326 65.391955504 53.741610159 65.318278285 65.399503964 54.116933723 63.695451532 66.870949551 54.327678748 
65.326114503 66.849091749 54.64212088 63.893307285 68.288925875 55.010450245 65.425012805 68.267801033 55.244738213 
64.146293488 69.691446106 55.717717071 65.544012967 69.593028748 56.026565717 64.243077443 70.958351075 56.625000437 
65.606609165 70.879618901 56.880228962 64.16306603 72.071761771 57.758669777 65.58085164 71.970435992 57.976173973 
64.01907015 72.977185494 59.028366283 65.50656252 73.016299527 59.142478629 63.798673721 73.634262703 60.460485808 
65.417247182 73.679423335 60.536112472 63.837862846 74.180158317 61.94344158 65.438717991 74.292877867 61.976766031 
63.982458267 74.679274221 63.446789142 65.547508815 74.76235308 63.484366959 64.345384752 74.949390091 64.972113095 
65.731040974 75.168404112 65.007413826 64.527743256 75.055618965 66.50379719 65.800553211 75.453647187 66.581451348 
64.283153788 74.7743416 68.050519665 65.783935625 75.231985046 68.182158385 64.322593329 74.17993759 69.51347587 
65.802526038 74.638254345 69.794089561 64.260194578 73.457032583 70.906442511 65.572107969 73.730140773 71.27867992 
63.882622682 72.598746477 72.19177352 65.198136449 72.758319247 72.597099569 63.346726525 71.396366132 73.06305239 
64.847646025 71.579466918 73.597521973 62.888690199 70.16141221 73.935152158 64.494268507 70.345959008 74.57206454 
62.713025913 68.956335467 74.958980015 64.240824196 69.093946401 75.551782761 62.633746652 67.572887343 75.718591539 
64.120344828 67.642445386 76.255407417 62.530322769 66.1178601 76.335752576 63.969639508 66.147588518 76.849945185 
62.251547914 64.608048097 76.752937996 63.703092347 64.626354899 77.292293432 61.882838453 63.080083412 76.939165002 
63.414422574 63.04868392 77.416593635 61.508391912 61.539194743 77.010597354 63.135316849 61.482590409 77.425726478 
61.406983064 59.953358914 76.932288049 63.001614039 59.918589275 77.341964616 61.480292642 58.37270763 76.846522872 
63.027687929 58.369748041 77.13303319 61.656746723 56.796325335 76.736839642 63.128086248 56.83069903 76.94338296 
61.759828663 55.22540557 76.506890549 63.23889554 55.302048113 76.745568195 61.907302788 53.650565061 76.347633834 
63.372623697 53.777719829 76.54608611 62.071165179 52.074626989 76.214163358 63.512840104 52.268238649 76.339636352 
62.146503643 50.5098008 75.936792679 63.642784352 50.773034223 76.065636964 62.25290373 48.982711227 75.523754571 
63.797023746 49.314328194 75.64053594 62.385246136 47.487138852 74.997408545 63.989566796 47.887697762 75.111194529 
62.624046793 46.123491903 74.216165273 64.2531417 46.59921018 74.366946249 62.965242154 44.865865668 73.347131501 
64.621106024 45.419612914 73.501207334 63.607965292 43.917297333 72.243312467 65.115689957 44.448265027 72.504171209 
64.189104594 43.421193716 70.906459438 65.560904016 43.975157174 71.05422903 90.38710022 49.330883026 80.461776733 
90.029182964 50.240585325 81.73588641 88.401011984 49.860428066 81.550914392 88.775262725 49.019399928 80.221734291 
89.665209491 51.16641723 82.990459504 87.992490564 50.779849371 82.849761261 89.163572035 52.458891521 83.800946131 
87.540248966 52.009949958 83.799684228 88.660303121 53.752846594 84.607203445 87.048245786 53.301460516 84.693033954 
88.058872017 55.135897971 85.158989654 86.532290931 54.72333833 85.296622703 87.457440912 56.518949347 85.710775863 
86.045268526 56.185837596 85.882692081 87.163120942 58.062272767 86.028608776 85.685377275 57.747038834 86.11355421 
86.886670152 59.614714615 86.332537875 85.386206004 59.328735191 86.323651881 86.670122848 61.187358492 86.57526613 
85.132038357 60.921888914 86.346734016 86.433047882 62.759460534 86.795901974 84.878022989 62.511412897 86.437554555 
86.136653128 64.32999681 86.9526963 84.605985677 64.0910119 86.582005307 85.893880233 65.904429132 86.896332216 
84.368253566 65.675133909 86.522697809 85.693343735 67.481930257 86.672069388 84.181011277 67.250158341 86.267662578 
85.589328695 69.054916557 86.366809648 84.041480118 68.832328538 85.997677578 85.528176695 70.617118596 86.005669856 
83.951941071 70.406076213 85.647238845 85.508181746 72.163913291 85.581206133 83.909732039 71.948467524 85.165240794 
85.580967914 73.503360901 84.69825609 83.975957723 73.317742644 84.349039226 85.692285847 74.795809958 83.756749922 
84.078104034 74.633176073 83.438910858 85.856450366 76.02380017 82.734933621 84.206463652 75.870023728 82.431850489 
86.00473653 77.169048582 81.622070751 84.342000985 77.013007847 81.318628221 86.145828407 78.276807704 80.467955803 
84.478715588 78.105530705 80.158687449 86.337795761 79.197140415 79.168334601 84.634536809 79.115131671 78.929856602 
86.532790321 80.094565227 77.851359707 84.782255915 80.095370285 77.683995512 86.599330058 80.801984228 76.411168982 
84.919155386 80.78075525 76.227257162 86.677260975 81.473057546 74.963684646 85.079276836 81.44090912 74.8033081 
86.962684209 81.482087921 73.383345905 85.34796537 81.472356327 73.166893161 87.26486992 81.452602729 71.813362832 
85.674197452 81.479567802 71.592643315 87.763960623 80.970683981 70.365025408 86.097526794 80.950093981 70.080492032 
88.224062795 80.459933819 68.921462367 86.460483608 80.390306913 68.614196001 88.313279871 79.674919891 67.523316469 
86.656917898 79.52762891 67.253582212 88.402496947 78.889905964 66.125170572 86.797814639 78.681793352 65.881244235 
88.434484314 77.913574528 64.850752048 86.893587782 77.726090972 64.576596583 88.465818698 76.935060186 63.577745236 
87.003858727 76.735503566 63.291268413 88.690632545 75.909604674 62.367576552 87.198161303 75.705265946 62.044216324 
88.970534152 74.870784001 61.175299233 87.477865253 74.644645738 60.836742598 89.411029968 73.723997 60.155128955 
87.869144199 73.488680102 59.767888306 89.921239423 72.530342023 59.209670012 88.406291815 72.302626702 58.793737724 
90.541905346 71.312656166 58.374051928 89.025017889 71.052265713 57.975485157 91.219374888 70.08261213 57.594920879 
89.693155406 69.789718559 57.229466614 91.913587251 68.821460397 56.885750062 90.35024681 68.499888325 56.552237676 
92.617777954 67.541769185 56.21827395 90.937457303 67.184334544 55.898389889 93.019497833 66.131707765 55.598416733 
91.370292893 65.80801733 55.276598754 93.297928621 64.668506593 54.997969291 91.66189015 64.398280847 54.64846048 
93.387149938 63.147599974 54.492870703 91.795260144 62.885273547 54.211367809 93.38351221 61.603351914 54.150879644 
91.826972405 61.324628721 53.886960891 93.181528456 60.010660303 54.190306803 91.76246979 59.763382202 53.977054491 
93.114261647 58.471817572 54.600163389 91.748152468 58.22753462 54.369249267 93.161704231 57.106059347 55.339510642 
91.800251433 56.818715741 55.14046308 93.359850188 56.034489166 56.519126695 91.871216826 55.779890414 56.312877458 
93.498436704 55.070689457 57.788528925 91.973656807 54.758933365 57.519144207 93.586960565 54.197476154 59.133400874 
92.067175419 53.778202098 58.766544454 93.678166438 53.23456074 60.409905316 92.149773936 52.779681084 60.007171436 
93.772328793 52.17276333 61.611045697 92.201868481 51.761162344 61.232867541 93.718027238 51.237482201 62.891901255 
92.156201663 50.830740526 62.52541294 93.460675219 50.475234299 64.281781314 91.977031315 50.09058399 63.924122035 
93.269489818 49.736258726 65.691003805 91.813472651 49.356748476 65.331534477 93.209215463 49.043327593 67.138495412 
91.656576536 48.683432297 66.767260505 93.035707203 48.421886051 68.595332436 91.418450556 48.088796429 68.225539112 
92.608650206 47.96052108 70.073095336 91.043617916 47.667752459 69.710894901 92.060363364 47.532250152 71.517106047 
90.622314432 47.281584521 71.192862762 91.600123242 47.210448688 72.987382154 90.238913469 47.037759592 72.713351922 
91.603791687 47.144365589 74.59195003 90.005342926 47.102862911 74.26839486 91.370977908 47.522654542 76.118661339 
89.753863725 47.351536457 75.821556434 91.090492246 47.991748671 77.628398387 89.467725532 47.716248897 77.364884695 
90.738796233 48.661315848 79.04508756 89.130678639 48.351466899 78.795334371 67.337705893 44.626206964 66.69644714 
67.267766979 44.535253487 68.21151848 67.284237673 44.933327245 65.216716636 67.244009072 45.271382897 63.745440967 
[...]
POINT_DATA 1161
FIELD FieldData 21
Circ_Strain_Pt 1 1161 double
0.99123527762 0.99502725666 0.99493019618 0.99186808414 0.99833853865 0.99718197001 0.99875976143 0.99816322541 0.99898973344 
0.99890214531 0.99821511401 0.99878461456 0.99777072563 0.99833683657 0.99827958732 0.99817219841 0.99856763676 0.99811199503 
0.9985895557 0.99818904325 0.99735020698 0.99781612451 0.99577969474 0.99739625028 0.99676041864 0.99759293136 0.99796850511 
0.99867644125 0.99886101181 0.99894785469 0.99778394754 0.99746299536 0.99828526142 0.99772435507 0.99930786839 0.99803950778 
0.9995763044 0.99874033515 0.99827433604 0.99932970882 0.99547288839 0.99737537782 0.99602815841 0.99694243952 0.99825353221 
0.99664549632 0.99580392808 0.99519467325 0.99217012877 0.99301020424 0.9906082242 0.99166039434 0.99139143396 0.99270869503 
0.99268800277 0.9936801754 0.99459750734 0.99541966484 0.99665848725 0.99638501771 0.99873787688 0.99673557612 0.99737053327 
0.99534070658 0.99588643102 0.99368548118 0.99412625623 0.99139158529 0.99558538979 0.99226568622 0.99588515863 0.99512348111 
0.99260242171 0.99518044274 0.99331025201 0.99667631841 0.99423863127 0.99692410685 0.99436565957 0.99583827006 0.99594840788 
0.99691611106 0.9976020995 0.99794420081 0.9980285488 0.99855275484 0.99812248648 0.99824794727 0.99812526009 0.99809099428 
0.99854264872 0.9982114081 0.99897551276 0.99891021448 0.99930265088 0.99947016002 0.99889705389 0.99967890175 0.99887967858 
0.99935328365 0.99901206196 0.99895174483 0.9984308919 0.99857035104 0.99826452118 0.99842161244 0.99844458623 0.99801988379 
0.99751636957 0.99582197198 0.99509152799 0.99192144827 0.98819453322 0.98723972953 0.98774808591 0.98792415515 0.99600610163 
0.99465688561 0.99449976765 0.99549621293 0.99347790971 0.99366479064 0.99616866544 0.99537720504 0.99882175672 0.99764098581 
0.99920863685 0.99769929233 0.99959551699 0.99789764847 0.99972811681 0.99758564962 0.99982469518 0.99756751547 0.99873734947 
0.99792426277 0.99768248776 0.99677438392 0.99672149666 0.99614431111 0.99753605854 0.99679810005 0.99974917239 0.99863069958 
0.99741560907 0.99805336628 0.99516605861 0.99711726031 0.99334414001 0.99643146418 0.99731238256 0.99790931737 0.99946835804 
0.9989779849 0.99913879662 0.99885829221 0.99911287282 0.99894454401 0.99922452349 0.9986910814 0.99578086033 0.99842431258 
0.99199130701 0.99686461527 0.98959917064 0.99074445742 0.98755928605 0.98800778794 0.99193572917 0.99064689818 0.99604361837 
0.9949027633 0.99699686613 0.99592988143 0.99790973038 0.9962419495 0.99843843964 0.99749978919 0.9989671489 0.998442078 
0.99890577654 0.99930780875 0.99883767144 0.99936529516 0.99861078878 0.99917250743 0.99833869875 0.99887059729 0.9987444225 
0.99893456305 0.99944438391 0.99929639846 0.99963835328 0.99949878582 0.99957210993 0.99960896999 0.99961586908 0.99932218265 
0.99972518721 0.99891080458 0.99716754914 0.99759457624 0.99352284223 0.99518923058 0.99132066223 0.99391719591 0.99070067145 
0.9938261644 0.99370842367 0.99276314776 0.99158026547 0.98763784838 0.99104779979 0.98469150513 0.99574513863 0.99039305345 
0.99686411982 0.9965381413 0.99497531455 0.99858921012 0.993924863 0.99726559664 0.99379856014 0.99678469433 0.99456033285 
0.99712900795 0.99653670482 0.99791829207 0.99768618999 0.99827409701 0.99719967469 0.99754432671 0.99732949643 0.99721593327 
0.9988393949 0.9974414891 0.99754638465 0.9964877448 0.9949741853 0.9949828652 0.99341575503 0.99579842646 0.99595225427 
0.99674802963 0.99920246043 0.99751448512 0.99760428103 0.99646880037 0.99807826321 0.99744060832 0.99891552156 0.9991956276 
0.99854816529 0.99791452697 0.99793749495 0.9981474687 0.99874525046 0.9989299416 0.99834871224 0.99827821597 0.99838950634 
0.99807781765 0.99716103992 0.99723331816 0.99771305111 0.99808325398 0.99870666306 0.99862459491 0.99836420327 0.99582883896 
0.99338681951 0.99446296877 0.99477599531 0.99501541952 0.99550156738 0.99652635194 0.99767537382 0.99527693411 0.99234220391 
0.99046706118 0.99480384061 0.99790747579 0.99772591777 0.99810348894 0.99775834922 0.99811121322 0.9979422703 0.99848974081 
0.99860503839 0.99838709981 0.99875823469 0.99897508101 0.998844594 0.99915187726 0.99978069509 0.99928444631 0.99850015731 
0.99758540665 0.99823460405 0.99608208595 0.99246719575 0.99090091532 0.98988329674 0.98976523835 0.99091508251 0.9960835639 
0.99468088527 0.99505160322 0.99570784555 0.99680036199 0.99649084103 0.99628613376 0.9966811708 0.99806884275 0.99781889868 
0.99706436431 0.99674154822 0.99756492608 0.99916119361 0.99933559068 0.99741201106 0.99594000633 0.99746691209 0.99882896129 
0.99847983853 0.99821507496 0.99802896966 0.99658126133 0.99146916164 0.98698639491 0.98654767471 0.98837054946 0.99314745756 
0.9960009388 0.99677239613 0.99739056954 0.99802980535 0.99902293418 0.99949630998 0.99919283459 0.9987764994 0.99856088796 
0.9987029534 0.99907979501 0.99941489933 0.9995088149 0.99933295787 0.99856297565 0.99779778023 0.99640932807 0.99571488598 
0.99755815523 0.987721523 0.98291554409 0.99173267066 0.99931942374 0.99808580851 0.99687691567 0.99604906573 0.99616898812 
0.99754633278 0.99813256831 0.99747884892 0.9973286431 0.99800434018 0.99561871 0.99404647699 0.9957101243 0.99643090734 
0.99601061266 0.9963431176 0.99600479711 0.99912886753 0.99872556984 0.99880645932 0.99835374034 0.99795176846 0.99771427821 
0.99787442579 0.99806608496 0.99815206603 0.99881419747 0.99877336998 0.99873455766 0.99914240081 0.99764253401 0.99674980804 
0.99916371067 0.99882012679 0.99892877534 0.99858313151 0.99755745207 0.99660562635 0.99575467793 0.99518711875 0.99538515878 
0.99682948585 0.99713964165 0.99746583562 0.99775719556 0.99616696255 0.9933650222 0.99513268361 0.998064939 0.99910666653 
0.99505028851 0.99592171862 0.99602005524 0.99731711416 0.99842374311 0.99898346429 0.99870079823 0.99834525619 0.99793135243 
0.99804485429 0.99854972491 0.99917496626 0.9994429191 0.99863929028 0.99738208117 0.99703068146 0.9970947262 0.99568723174 
0.99404450749 0.9917777315 0.98967466238 0.98457532013 0.98822222499 0.99449939368 0.996677168 0.99682451822 0.99329187449 
0.99540026164 0.99484004741 0.99651108637 0.99643636322 0.99636118416 0.99692472651 0.99761798287 0.99831402219 0.99845748137 
0.99748397745 0.99774914106 0.99924063601 0.99954917743 0.99794553059 0.99679900972 0.99791161492 0.99873077022 0.9989643297 
0.99839667419 0.99751993664 0.9959450906 0.99377515065 0.9903692103 0.98628644444 0.98806715074 0.99267198221 0.99585510712 
0.99755784984 0.99806595252 0.99865863205 0.99933894932 0.99960681728 0.99920169058 0.9986746579 0.99821761015 0.99839864794 
0.99844737576 0.99875040705 0.99914525581 0.99868418747 0.99825179244 0.99767665048 0.99705014694 0.99687555461 0.99424322501 
0.98766835224 0.98422634645 0.98769288237 0.99211884223 0.99749729934 0.99803730433 0.99628388419 0.9959400924 0.99762401061 
0.99839232946 0.99751536882 0.99762178366 0.99901405363 0.99799724659 0.99748008043 0.99754573605 0.99779672006 0.99608449357 
0.99509735213 0.99502157158 0.99499285623 0.99154660333 0.99371383035 0.99118903957 0.99278606233 0.99707685949 0.99902015748 
0.99922881331 0.99955413219 0.99932654836 0.99597082235 0.99568562343 0.99594024571 0.9975997715 0.99853048038 0.99812341975 
0.9970426245 0.99585132053 0.99648732444 0.99737347529 0.99465559143 0.99389992315 0.99464561641 0.99216050906 0.98756135429 
0.98783951999 0.99058494242 0.99361126428 0.99694332723 0.99886927627 0.99866447486 0.99724053477 0.9980527713 0.99849889162 
0.99858216965 0.99865266564 0.99874592623 0.99872356632 0.99907029285 0.99776708346 0.99630048435 0.9980170623 0.99985255853 
0.99948773684 0.99842841694 0.99802837803 0.99801188232 0.99755679312 0.99613628661 0.99319182165 0.99238270893 0.9932092953 
0.99485113145 0.99691919229 0.99819692032 0.9979726564 0.99819759858 0.99879953729 0.99788167893 0.99538123058 0.99440258012 
0.99377919134 0.99458090368 0.99277151531 0.99675695742 0.99682583508 0.99625488474 0.99584350959 0.99739869987 0.99811574023 
0.99740069455 0.99718319845 0.9982052749 0.99856564827 0.99841497187 0.99882284358 0.9985562328 0.99815478815 0.99864870942 
0.99895940024 0.99843860163 0.99808160247 0.99785904584 0.99725519739 0.99649121351 0.99391427844 0.98889102946 0.98993665236 
0.99547254229 0.99818180975 0.99871451139 0.9991573804 0.99937258534 0.99967711271 0.99943099489 0.99903852206 0.99839962486 
0.99814659838 0.99799892906 0.99801498669 0.99814975001 0.99855456897 0.99886116024 0.99862902929 0.99830200191 0.99752004619 
0.99675012047 0.99710680708 0.98960667895 0.9853686412 0.99498846937 0.99843704368 0.99781832535 0.99702965706 0.99611970614 
0.99629782199 0.99797453558 0.99825144181 0.99748506373 0.99739810163 0.9978234747 0.99821485025 0.99787738915 0.99761064681 
0.99856809521 0.99559220749 0.99349878617 0.99227524182 0.99435066995 0.99689826943 0.99256693433 0.99324233241 0.99503182392 
0.99755534452 0.99874510058 0.99963917659 0.99964839656 0.99864158025 0.99440631456 0.99218567875 0.99642393062 0.99709065106 
0.99865640691 0.99753603403 0.99541292635 0.99602069864 0.99707793444 0.99763594878 0.99653294946 0.99483962352 0.9931507252 
0.99230026038 0.9936029437 0.99634443331 0.99795687164 0.99887426871 0.99933010188 0.99810635873 0.99612984042 0.99694569069 
0.99899262904 0.99753764809 0.99779338148 0.99765810044 0.99762639345 0.99776357762 0.99754489817 0.99682406067 0.99832434777 
0.99951882529 0.99940573773 0.99832470147 0.99833011346 0.99706544095 0.99388766589 0.9908396847 0.98939230014 0.9915613125 
0.99509584637 0.99832923054 0.99952017793 0.99883484136 0.99782854265 0.99778563198 0.99801175043 0.99619365227 0.99353656298 
0.99316686915 0.99515101741 0.99500227237 0.99622757672 0.99352522633 0.99398086274 0.99474022135 0.99493588354 0.99683057741 
0.99396670142 0.9953269373 0.99675351566 0.99658116712 0.99597070209 0.99659844318 0.9975122107 0.99811034388 0.99866347181 
0.99885253471 0.99904147273 0.99931673854 0.99881918128 0.99824902493 0.99785239561 0.99763296284 0.99648707426 0.99314358321 
0.98770880868 0.98657307438 0.98687059699 0.99265202436 0.99642373931 0.99844834829 0.99917920799 0.99945700295 0.99961778408 
0.99958103917 0.99951598366 0.99936696386 0.99882220128 0.99787556358 0.99745760741 0.99857844209 0.9987188876 0.99882326106 
0.99809235181 0.99742689931 0.99666083852 0.99581640625 0.99471154827 0.99310764168 0.99067760979 0.99278706685 0.99432156085 
0.99685387271 0.99737042555 0.99597674439 0.99447199727 0.9964496767 0.99721405952 0.99822014702 0.99881775118 0.99939131776 
0.99798987652 0.99759649885 0.99821157187 0.99744202295 0.99442775358 0.99155247821 0.99127135827 0.9927264133 0.99460122253 
0.99670532667 0.99810186245 0.99736456154 0.99462069854 0.99652665938 0.99801104602 0.9991632129 0.99955939187 0.99948498639 
0.99951483635 0.99736387006 0.99555898472 0.99680533035 0.99104837289 0.99231671967 0.9978824291 0.99783017643 0.99682022805 
0.9957997884 0.99649969713 0.99773269773 0.99825537717 0.9977419143 0.99567129496 0.99221413338 0.9969904847 0.99883331316 
0.99902357919 0.99875401864 0.9983942023 0.99736951758 0.99728694166 0.99757149759 0.99819213477 0.99681646839 0.99554981247 
0.99468079245 0.99484740432 0.99620529588 0.99752886757 0.99869836493 0.99917376595 0.99880191898 0.99864028365 0.99893275351 
0.99905464185 0.99627201456 0.99453084993 0.99399252407 0.99549496121 0.99768370857 0.99897422773 0.99962664994 0.999239372 
0.99851089975 0.99808394212 0.99666377757 0.99451668089 0.99014945392 0.98960954252 0.99136437807 0.99268692138 0.99632638821 
0.99689227437 0.99625686965 0.9960183966 0.99862584588 0.99624523597 0.99648135823 0.9974569563 0.99830324133 0.99848773399 
0.99868587196 0.99775874904 0.99683417922 0.9949270719 0.99554521108 0.99593792676 0.99215415363 0.9914908097 0.99326300751 
0.99555477353 0.99663354652 0.99648793368 0.99582183015 0.99484640583 0.99606716891 0.99703435585 0.99809972713 0.99867798089 
0.99812301102 0.99800291864 0.99821835472 0.99825687127 0.99629829099 0.99319725238 0.99271137312 0.99473369487 0.99628075593 
0.99667617906 0.99641618968 0.99525222152 0.99479123445 0.9962464848 0.99743660717 0.99692236122 0.99633637665 0.99775376206 
0.99909776204 0.99882144615 0.99855108568 0.99860676425 0.99864279938 0.9994605307 0.99958691212 0.99921453942 0.99797114034 
0.99627120052 0.99403180246 0.99122002144 0.98650642759 0.97838272484 0.97638222478 0.97918677604 0.99179624207 0.99916854505 
0.99938474766 0.99969101932 0.99950618422 0.99934148204 0.99922250301 0.99913225515 0.99905630896 0.99906279534 0.99699374758 
0.9967300599 0.99656117763 0.99671755067 0.99816709604 0.99900526509 0.99944925446 0.9995246097 0.99933648603 0.99929606 
0.99899985373 0.99856352295 0.99719859826 0.99852723407 0.99587578443 0.99397044668 0.99731382904 0.99834860632 0.99869417402 
0.99667592946 0.995551615 0.99658558439 0.99861658528 0.99721759932 0.99548698024 0.99364884859 0.99140530827 0.99625982998 
0.99712959878 0.99808825565 0.99870548567 0.99892584798 0.99898774706 0.99826597492 0.99741025888 0.99689826522 0.99620509894 
0.99371171218 0.99295198697 0.99109924361 0.99142814721 0.996400972 0.99870993858 0.99930772116 0.99864996829 0.99893124685 
0.9987611626 0.99803865307 0.99701627333 0.99640759594 0.99642981155 0.99660001858 0.99713085895 0.99806465521 0.99902578787 
0.99975497631 0.99974859258 0.99941425375 0.99849756545 0.99558103131 0.99647596478 0.9973489182 0.99824650151 0.99863074512 
0.99844206793 0.99573421545 0.99668425585 0.99812368293 0.99597419151 0.99177470859 0.98979544959 0.99435172442 0.99549628506 
0.99674517743 0.997581845 0.99800765346 0.99823741652 0.99854782931 0.9983505004 0.99772919373 0.99747989241 0.997019488 
0.99658432426 0.9979766014 0.99702134901 0.99353893034 0.99140399262 0.99162046368 0.99526959356 0.99674801355 0.99659962034 
0.99532067009 0.99478323543 0.99658888989 0.99794303137 0.99769576896 0.99778866086 0.99832096009 0.99899631481 0.99859826565 
0.99822889292 0.99821068169 0.99869671451 0.9994530585 0.99947711719 0.99835867841 0.99915524321 0.99899408312 0.98994728525 
0.98995129476 0.99291814752 0.98542387102 0.9862917361 0.99373911342 0.99898188412 0.99771242534 0.9993318908 0.99970842563 
0.99966224658 0.99950532316 0.9992630171 0.99923352733 0.99918196239 0.99722330398 0.99687626808 0.99918499896 0.99935955234 
0.99985278905 0.99976158802 0.99953796839 0.99848008284 0.99648958167 0.99546537575 0.99570894029 0.99626494249 0.99779388959 
0.99891105207 0.99821275372 0.99731007687 0.99707086006 0.99718441071 0.99872103376 0.99457418444 0.99110797003 0.99161463621 
0.98985973724 0.9917670018 0.99291942776 0.99519596956 0.99721006112 0.99716184019 0.99714328293 0.99780652678 0.99852416909 
0.99929447243 0.99964113058 0.99956927174 0.99938291862 0.99935846542 0.99616796675 0.99337972439 0.9936749711 0.99428682198 
0.99093334166 0.9891289951 0.99095241158 0.99332472748 0.99559605501 0.99688478554 0.99641394408 0.99605655667 0.99654905492 
0.99813187615 0.99788999028 0.99810858687 0.9977532182 0.99755402518 0.99626925691 0.99752369698 0.9987231812 0.99889926551 
0.99746856124 0.99565009902 0.99574341685 0.99656377679 0.99767643136 0.99661941949 0.99243972292 0.9912831161 0.98980612231 
0.9894908109 0.98619386477 0.99446226401 0.9962997952 0.99644337426 0.99713952078 0.99811598076 0.99853764215 0.99918186873 
0.99932949038 0.99913215612 0.99782831824 0.99637847427 0.99319173267 0.98860530386 0.98709015405 0.99090538895 0.9944413418 
0.99809948841 0.99840259336 0.99584946078 0.99663792965 0.99778682629 0.99731543479 0.99694841941 0.99861088114 0.99871034089 
0.99832855407 0.99748739339 0.99640055486 0.99541356313 0.99597081315 0.9973176853 0.99752703491 0.99657298007 0.99094864472 
0.99299451782 0.99501747719 0.99648372242 0.99643132246 0.99757618796 0.99909986297 0.99917676329 0.99972200059 0.99970939006 
0.99965023973 0.99942696501 0.99764355348 0.99640808118 0.99494494323 0.99506325511 0.99287826789 0.98680029514 0.98320572835 
0.99728502926 0.99725832081 0.99721754082 0.99635326615 0.99856503565 0.99724800767 0.99597227523 0.99178329253 0.99293928376 
0.99929203098 0.99945423784 0.99979324043 0.99925585896 0.99893186551 0.99884160369 0.9984231895 0.99483433575 0.99081834962 
0.99641595696 0.99782161049 0.99588117983 0.99500148349 0.99610361965 0.99876411461 0.99056551937 0.99491165543 0.99674384987 

Circumferential 3 1161 double
-0.30805699889 0.079967760391 0.94800107739 -0.2260238188 -0.026755941499 0.96560665729 -0.11889311007 -0.022972357579 0.98531314081 
-0.19859835629 0.074772533201 0.97469174663 -0.14985014941 -0.12799819473 0.97953051193 -0.053987629858 -0.11740833732 0.99011850691 
-0.10890410643 -0.19628615825 0.9713194515 -0.039704037329 -0.20140793317 0.97539351128 -0.076510228245 -0.26484133359 0.96042892886 
-0.027231239532 -0.28000835153 0.958518432 -0.089038359525 -0.33479940334 0.9354641389 -0.032214920741 -0.34457612142 0.93586074766 
-0.092520036172 -0.41260636499 0.9032450577 -0.033006260973 -0.42598279712 0.90131321158 -0.069888073154 -0.51307006853 0.85008562263 
-0.022793969709 -0.51011882362 0.85544138811 -0.037150206494 -0.59936152442 0.79611547994 -0.006661704335 -0.58750577668 0.8065582959 
0.0077678797086 -0.66857213562 0.7411682374 0.020352770897 -0.65936093865 0.74975572208 0.072745835155 -0.73465428424 0.66587143033 
0.070607450774 -0.72104032289 0.68504345118 0.14427066121 -0.79897512156 0.58303940625 0.13794732126 -0.79274372053 0.58919646062 
0.20884334748 -0.84493427536 0.48377871676 0.18861015989 -0.85349453504 0.48252088115 0.24413287104 -0.88094020606 0.40319984298 
0.20871554404 -0.88728428526 0.40939311576 0.26169764463 -0.90537556243 0.32876721686 0.22559016541 -0.90813255227 0.35215957522 
0.32304020742 -0.92343614422 0.20168138628 0.26196245977 -0.92954289393 0.25531418276 0.35409862257 -0.93407660769 0.045522748004 
0.29821478547 -0.94375776896 0.12876189182 0.33610241854 -0.94129406034 -0.018205266089 0.33173716129 -0.94001117776 0.07468200564 
0.39842652691 -0.91541120444 -0.013584954545 0.35120184618 -0.93490676373 0.029296736275 0.39177928687 -0.91499508271 -0.031728287842 
0.36228197873 -0.93135941959 -0.026387208137 0.29846641912 -0.94721060222 -0.086149638699 0.37175851285 -0.92395183715 -0.076738405946 
0.31410174839 -0.93020165789 -0.1591663773 0.40124082083 -0.89654648121 -0.17371799801 0.38394321008 -0.88870157031 -0.24143544151 
0.43027439492 -0.85233688616 -0.27982295912 0.37609264794 -0.86705547565 -0.31507171116 0.43079030989 -0.81597916305 -0.37949941469 
0.34856230775 -0.85043849643 -0.38652125172 0.3891625831 -0.80817951636 -0.43648517228 0.34643287111 -0.78349850683 -0.49016902893 
0.36016211945 -0.78119009606 -0.50198871335 0.37305317292 -0.65960080525 -0.63026035007 0.36468898168 -0.68221856823 -0.61872219169 
0.3889627016 -0.52265882757 -0.74658889966 0.36002413243 -0.57504775947 -0.72914311366 0.39208334248 -0.37014156206 -0.83454368997 
0.35920191378 -0.4353848666 -0.81690478814 0.3750040299 -0.26983614433 -0.88364130255 0.35531614965 -0.31846357098 -0.87666618168 
0.34996626057 -0.18972971003 -0.91718074969 0.34985755036 -0.25270451637 -0.90106327605 0.328162126 -0.070444314801 -0.93628553498 
0.33613468677 -0.13314803885 -0.92427202836 0.29713554403 0.070415773095 -0.94497250517 0.3036191205 0.050898761687 -0.9470890636 
0.24430274186 0.26228862144 -0.92902684149 0.22443609251 0.26128355721 -0.92899478224 0.2022836416 0.4058606506 -0.88430868405 
0.13577082584 0.41684301426 -0.89318553786 0.16847504873 0.52477839836 -0.83185174845 0.1098111605 0.53036507383 -0.83783271372 
0.14690804608 0.6131213761 -0.77511475055 0.10724289423 0.6221958491 -0.77293462148 0.096045219762 0.7004310297 -0.69939776246 
0.073504845672 0.69127245625 -0.71250800084 0.04986692786 0.7720329322 -0.63306318131 0.057662334109 0.76690078004 -0.63744376746 
0.027809129212 0.79856268845 -0.60071938396 0.044344066299 0.81155979786 -0.58207245985 -0.025123305178 0.85382862712 -0.50840913062 