# vtk DataFile Version 5.1
vtk output
ASCII
DATASET POLYDATA
POINTS 1101 double
34.196025848 72.89466095 60.191234589 34.032268675 72.038872888 61.723723488 35.800930456 71.724515469 61.661023864 
35.948790799 72.38335211 59.936105211 33.868511502 71.183084827 63.256212388 35.635200926 70.903844244 63.223091244 
33.769896323 70.107651445 64.646453319 35.529029284 69.978641985 64.706970841 33.679038567 69.006061643 66.019754677 
35.452181923 68.942717915 66.120358869 33.782409207 67.843923509 67.340497774 35.459490458 67.759083897 67.401918851 
33.812880776 66.611289116 68.582458579 35.454162992 66.535112515 68.648062447 33.628022129 65.201378031 69.624423002 
35.390674098 65.196312511 69.769494735 33.600302666 63.770299861 70.645746566 35.39285583 63.838047305 70.868531804 
33.706302635 62.322642641 71.638810479 35.487904491 62.450132206 71.923315542 34.150173738 60.842829271 72.487835024 
35.664095612 61.028414793 72.905072221 34.310134434 59.223788786 73.116808731 35.813179144 59.437230856 73.602190021 
34.387973585 57.521209734 73.541467123 35.948013909 57.739784228 74.053760567 34.544768808 55.78153577 73.772058872 
36.108299594 55.978906534 74.286736224 34.772973972 54.035710871 73.859977414 36.355596253 54.231502522 74.220894686 
34.831043082 52.279567557 73.74720261 36.571531462 52.475201193 73.962491628 35.063315592 50.54492203 73.586326691 
36.789377546 50.7119041 73.783285972 35.282464992 48.834269198 73.276490498 37.011153773 48.984766231 73.403139796 
35.384608874 47.155975926 72.755341487 37.178612258 47.276728907 72.860656531 35.545370831 45.538557307 72.072828153 
37.294423176 45.566096638 72.281056774 35.493191821 43.794918628 71.820623426 37.257668744 43.846012687 71.83157917 
35.447416923 42.209792616 71.167935277 37.181168703 42.195914866 71.272530813 35.422537084 40.728845137 70.231499829 
37.119460895 40.606161635 70.547706013 35.470723356 39.055956997 69.677572757 37.180429566 39.252325173 69.543630728 
35.494330072 37.524317977 68.91390107 37.18857137 37.83121426 68.649108206 35.45013955 36.382283201 67.571695566 
37.172023355 36.603431444 67.524872703 35.477310776 35.367263228 66.136872036 37.114068293 35.774190584 66.028591959 
35.547556323 34.428910052 64.646143782 37.041755172 35.151269039 64.558272845 35.359027262 34.00362283 62.962435821 
36.74036842 35.070304695 62.938379166 35.122177083 33.803890363 61.271072402 36.453741605 35.153286996 61.400344203 
34.826677301 34.607161038 59.729920901 36.09100852 35.770358685 60.069171685 34.536393912 35.613566485 58.362781885 
35.895089358 36.569276414 58.779628533 34.256425512 37.021654362 57.339738351 35.84009895 37.544950389 57.530796702 
34.046110303 38.252907267 56.145930024 35.773432998 38.581594133 56.251750558 33.966301035 39.15283272 54.632167657 
35.663351488 39.766263641 55.087120615 33.906889853 40.576823047 53.699116398 35.637811363 41.011136488 53.961966288 
33.859251889 42.170261313 52.949758661 35.62542634 42.360200784 52.910559781 33.92941492 43.602134601 51.923830846 
35.644432075 43.761552084 51.8928014 33.975087867 45.124431782 51.049811074 35.648442993 45.21738098 50.923580878 
33.975310577 46.716427747 50.297865551 35.592926459 46.761208981 50.087724442 33.696913658 48.315083676 49.609021431 
35.44541184 48.344091151 49.334571072 33.522613886 49.92501605 48.918245785 35.304598843 49.963466032 48.647273283 
33.426888766 51.543460114 48.226012183 35.177757585 51.601220123 47.999106687 33.308816579 53.200248439 47.635862557 
35.039991876 53.243646 47.379878315 33.199657612 54.874322755 47.098039792 34.92610472 54.960183408 46.979050745 
33.105632486 56.572237649 46.633328985 34.83620877 56.680736917 46.780802561 33.08411295 58.290270725 46.989106077 
34.763851121 58.383406232 46.917046888 32.962500907 59.983636707 47.454457656 34.687639824 60.047601577 47.304287472 
32.865718289 61.671383543 47.931609993 34.642466165 61.668603057 47.818681415 33.016699659 63.383641518 48.322876013 
34.690004092 63.273438485 48.372643243 33.13351223 64.921074118 49.097029237 34.782138159 64.750378452 49.14578451 
33.225214767 66.330030708 50.152559349 34.923005472 66.110205696 50.151442156 33.438109443 67.550206466 51.397970743 
35.103927739 67.323749024 51.359663824 33.682584668 68.721189246 52.692861874 35.267287608 68.439586633 52.674828546 
33.780682364 69.865240554 54.026979483 35.369920009 69.552673946 53.999907211 33.820912812 70.998645076 55.376604447 
35.47356558 70.625621865 55.353514496 33.884643789 71.993109237 56.796961013 35.646790385 71.674540971 56.741228153 
34.040334819 72.443885093 58.494097801 35.767589224 72.006336578 58.360095802 64.957359314 65.064529419 48.97612381 
64.801247375 63.343580931 48.439666853 63.033908646 63.461983586 48.263968218 63.184411626 65.180439372 48.80010814 
64.639905321 61.604072253 48.008936661 62.887121216 61.737112044 47.743174815 64.462093815 59.806118169 47.911136451 
62.694801257 59.903706122 47.625974788 64.278731459 58.018243574 48.019136507 62.502956172 58.06567751 47.67110874 
64.091183134 56.237970052 48.282333234 62.295661923 56.260062526 48.018017298 63.979117132 54.494546553 48.751615537 
62.158779463 54.454903551 48.425109797 63.82180659 52.759026305 49.23535113 62.051821884 52.65216867 48.889734292 
63.603525388 51.032199431 49.729560567 61.992738246 50.874777047 49.482284679 63.830445553 49.48660123 50.628533808 
62.107655098 49.158713127 50.228594034 63.926107167 48.078348835 51.731355682 62.216909854 47.501832525 51.183634498 
63.881122149 46.797339869 53.007042068 62.271429078 46.034628637 52.451688908 63.854849602 45.639426334 54.397138 
62.520974784 44.720386084 53.810669273 63.835523543 44.488779678 55.793345116 62.57897907 43.551567705 55.20531567 
63.854721279 43.377874351 57.217435034 62.605533181 42.431615694 56.676643468 63.999011291 42.395846318 58.730254269 
62.667876825 41.469783283 58.277837445 64.186755152 41.649657495 60.359972849 62.711440588 40.758807892 60.040532301 
64.407040472 41.111535299 62.062408392 62.753741957 40.326672281 61.892537953 64.666049359 40.856101816 63.834832955 
62.888929814 40.247441182 63.787992795 64.922396096 41.088327239 65.605487991 63.045971387 40.588050564 65.645109841 
65.080962745 41.599904485 67.314881851 63.204395389 41.20692585 67.414619652 65.150396022 42.331168841 68.968439278 
63.285635647 41.988861389 69.096903425 65.096289094 42.999189889 70.649055164 63.302896773 42.764476265 70.759016497 
65.037583495 43.826238545 72.235835302 63.274679037 43.667786136 72.339659069 64.971812814 44.971712051 73.634901193 
63.21904999 44.793861862 73.747004983 64.942951793 46.217079158 74.942825009 63.160481562 46.136888642 74.972345406 
64.935475834 47.520323549 76.197942083 63.123358338 47.499976003 76.160994769 64.983418985 48.940723011 77.316296087 
63.119662393 48.924217406 77.274293212 65.035040296 50.418342052 78.337734657 63.137761426 50.453114714 78.261475418 
65.079802356 52.118723748 78.954596998 63.198004173 52.121440558 78.905761983 65.152742816 53.876789287 79.259663342 
63.291847835 53.913145758 79.190866427 65.249705942 55.682993899 79.30459232 63.403871774 55.717036673 79.223934475 
65.385035938 57.486042906 79.371829012 63.536436902 57.489281395 79.10923205 65.49367941 59.274694528 79.240061952 
63.669301906 59.240408286 78.832198731 65.572436919 61.047222667 78.885432636 63.78081367 60.966540833 78.452174386 
65.661854297 62.78623744 78.396522526 63.878482547 62.664903979 77.985808782 65.752309761 64.480555157 77.790657928 
63.953596701 64.322880027 77.398330581 65.841756162 66.076386277 76.942634887 64.001161496 65.895089609 76.644486069 
65.873975262 67.422841914 75.760774569 64.044414431 67.261396021 75.52128262 65.873012128 68.659567742 74.441189512 
64.053481506 68.518887984 74.279633533 65.831354583 69.829914638 73.061923948 64.044436686 69.648549614 72.931112811 
65.859210265 70.814721401 71.550093077 64.056559616 70.543547121 71.402686943 65.879609226 71.607448045 69.947965547 
64.047022915 71.278861253 69.791803978 65.794372018 71.908489207 68.165851764 64.011880802 71.634025359 68.068761906 
65.690747811 72.243094858 66.390930331 63.951694193 71.960361929 66.327132466 65.592829305 72.612820238 64.623307275 
63.895610597 72.259504636 64.574987032 65.576532965 73.079501306 62.875232932 63.859158265 72.587137501 62.839493548 
65.552434856 73.0941713 61.100097954 63.831702861 72.684300812 61.094116843 65.52071931 72.897018968 59.305110838 
63.790602473 72.639539323 59.328164103 65.478053465 72.908826745 57.496282238 63.734077996 72.666662743 57.563299877 
65.428928907 72.631565402 55.717503841 63.672133235 72.407378303 55.817465375 65.37395946 72.11922065 54.004686938 
63.614290309 71.927641409 54.120997096 65.305991642 71.12315306 52.495697066 63.547041918 70.992449695 52.634426772 
65.257493151 69.882893655 51.2028628 63.489459486 69.817851368 51.317925425 65.22026867 68.501231243 50.035196743 
63.419555542 68.434883356 50.223657043 65.092978975 66.797761993 49.477454891 63.319350995 66.86059901 49.409975197 
37.299128119 70.513212258 63.154597481 37.429993996 71.17057596 61.545803327 37.201621964 69.68497324 64.67265501 
37.142493435 68.806537758 66.152363285 37.129820508 67.659534619 67.453014967 37.125605564 66.445719899 68.704695507 
37.081734422 65.229988083 69.969099719 37.097673989 63.998020918 71.225855979 37.138895087 62.700199482 72.399709934 
37.194073731 61.308232413 73.47309813 37.336071683 59.716830329 74.202074812 37.521797447 57.997563187 74.643296345 
37.71605032 56.203792064 74.850759345 37.999515434 54.442434275 74.649975852 38.263491177 52.666141367 74.367041099 
38.50572193 50.852574012 74.187200923 38.730027757 49.047414397 73.896871046 38.95271511 47.25593372 73.41415038 
38.998991031 45.441883223 72.941525754 38.973025431 43.723299113 72.319860598 38.895829392 42.086107863 71.57183331 
38.837730013 40.485246428 70.775470332 38.855307737 39.253801097 69.613066718 38.861169184 38.038209208 68.492005058 
[...]
POINT_DATA 1101
FIELD FieldData 21
Circ_Strain_Pt 1 1101 double
0.9298752744 0.96205946672 0.96512625359 0.94069911773 0.99424365905 0.99634070352 0.997952459 0.99794802863 0.99827027222 
0.9979069356 0.99790278034 0.99815125353 0.99769950637 0.99800911457 0.99801218227 0.9985815476 0.99841784095 0.99861618674 
0.99878046758 0.99826380221 0.99820474026 0.99854016414 0.99825919288 0.99879444481 0.99856588282 0.99808035864 0.99888484171 
0.99690741499 0.99958636158 0.99656303852 0.99967250553 0.99837449174 0.99926209712 0.99718239384 0.99831819847 0.99707659352 
0.99562365933 0.99743961497 0.98794466984 0.99614481311 0.97691278541 0.99554012843 0.97213142255 0.99530961404 0.97274084751 
0.99479582989 0.97235399507 0.98983645437 0.97456500157 0.9886481585 0.98394162354 0.98818306495 0.99091822843 0.98744352267 
0.99644617051 0.98600547848 0.99425883427 0.98778361278 0.99017049235 0.98976873642 0.98118761463 0.99288004543 0.97297353045 
0.9939181096 0.96627967275 0.99363415871 0.96392075255 0.99272770978 0.96968400289 0.99223666521 0.97706736818 0.99175882334 
0.98496520397 0.99264679497 0.9921390717 0.99621872996 0.99633903183 0.99853496406 0.99819744237 0.99959271295 0.9993236712 
0.99956821709 0.99981922439 0.99957494782 0.99983873075 0.99901919878 0.99805253432 0.9951080597 0.99380416151 0.99334181762 
0.98591340067 0.99296977595 0.98703328125 0.99530631039 0.99191802345 0.99703354758 0.99595429572 0.99550462859 0.99176604311 
0.99500740044 0.99122733492 0.99487275403 0.99337061097 0.99584542593 0.99530966069 0.99716431094 0.9971954926 0.99708445988 
0.99538780969 0.99404970468 0.99211997412 0.9911866394 0.98400822849 0.97717498446 0.95694175144 0.94877922171 0.99479649477 
0.99459110561 0.99636753293 0.99678626165 0.99489745789 0.99555959294 0.99681526649 0.99618383785 0.99834255262 0.99730658944 
0.99957534065 0.99904403231 0.9989017092 0.99961829262 0.99818882667 0.99956080604 0.99750015964 0.99760972842 0.99710031994 
0.9963272897 0.99781813469 0.99602986049 0.99936976029 0.99816444773 0.99968053408 0.99823940426 0.99911841647 0.99876905224 
0.99808729525 0.99867266911 0.99685030837 0.99693550365 0.99604747597 0.9960926501 0.99543333378 0.99605748213 0.99489150073 
0.99672335934 0.99556979705 0.99686728443 0.99581539324 0.99702898162 0.99557683485 0.99705776135 0.99468928808 0.99644743918 
0.99516743061 0.99605893055 0.99838193571 0.99742631488 0.99837399452 0.99754272873 0.99649900241 0.99700211877 0.99488092717 
0.9954927454 0.99370827705 0.99391766005 0.99455943002 0.99506510702 0.99584544727 0.99673520524 0.99747035078 0.99861160358 
0.99718002791 0.9986448733 0.99754294336 0.99920089344 0.9986374137 0.99918796309 0.9975195631 0.99775047559 0.99622075632 
0.9963634402 0.99521597944 0.99538099758 0.99685231913 0.99693666614 0.99822250162 0.9987853213 0.9957505178 0.99758035152 
0.99413820116 0.99656769676 0.99380241654 0.99628992815 0.9971555494 0.99849477036 0.99548675365 0.99874229337 0.9910010092 
0.99686078372 0.98517552694 0.99332216353 0.98692072526 0.99242747936 0.99184701846 0.99487948332 0.99192596178 0.99413603712 
0.99294904967 0.99399240509 0.99397351777 0.99317258824 0.99374382865 0.99196777883 0.99240286939 0.99223260205 0.99041841216 
0.99393394712 0.99242298445 0.99591413769 0.99801556903 0.98979246676 0.99755918131 0.9970518564 0.99768475221 0.99827298213 
0.9974982203 0.99704824994 0.9965933117 0.99589021243 0.99457173907 0.99521814122 0.99734388338 0.99821371297 0.99709239332 
0.99599894381 0.9968359843 0.99887299209 0.9988370005 0.9981774406 0.99652324972 0.99579848234 0.99188626579 0.98957213598 
0.9883598597 0.9884165729 0.99178427203 0.99512080183 0.99647299348 0.99759069616 0.99860713074 0.99882151468 0.99867558549 
0.99882095585 0.99863035383 0.99871499583 0.99917528898 0.99950803465 0.99943310672 0.99931048832 0.99869162246 0.99759145939 
0.99632825912 0.99588551093 0.99694628269 0.99612213984 0.99581942334 0.99541264163 0.99317309036 0.9928439518 0.9966323731 
0.99616841461 0.9892126732 0.9838193758 0.97633737066 0.97076558393 0.97526537709 0.97958364095 0.99678273758 0.99750720013 
0.99597790513 0.99568260046 0.99701644566 0.99939292145 0.99968946472 0.99946436288 0.99785561036 0.99722513788 0.99603177051 
0.99606961428 0.99689127954 0.99777179762 0.99569676889 0.99451972941 0.99645339685 0.99693715258 0.99732623078 0.99787781801 
0.99813200674 0.99793793828 0.99742534286 0.99657367863 0.99568668668 0.99569079014 0.99464521556 0.9938469386 0.99459855593 
0.99617723027 0.99780838956 0.99848584805 0.99936086353 0.99923259351 0.99883854306 0.99748841362 0.99625071392 0.99764421493 
0.99838325423 0.99740713079 0.99625019866 0.99630619006 0.99754065526 0.99884238143 0.9973646337 0.98999517436 0.98596127578 
0.98746839471 0.98949108498 0.99173421079 0.99394473017 0.99198189556 0.99163155516 0.99339164859 0.99579793574 0.99833850343 
0.99261829199 0.99270488336 0.99364575404 0.99668951992 0.99877947392 0.9988032558 0.99842970916 0.99723480378 0.99599694619 
0.99423453888 0.99474438634 0.99543746972 0.99591108683 0.99496374406 0.99550266975 0.99795929889 0.99955299878 0.99952238104 
0.99926986703 0.99760898496 0.99564602771 0.99382933822 0.99208989635 0.9898830853 0.99228015758 0.99520356423 0.99629607452 
0.996689681 0.99697067586 0.99713816162 0.9976869588 0.99828635665 0.99878728891 0.99894096173 0.99865890829 0.99877678904 
0.99917391438 0.99968564648 0.99905929346 0.99877234656 0.99861323451 0.99848525405 0.99866122994 0.99834470757 0.99570093927 
0.99224755635 0.99116000402 0.98562428055 0.98702871511 0.98812625755 0.98966874246 0.9941691408 0.99335343556 0.98829996082 
0.98679919032 0.98939269766 0.99138472316 0.99222814664 0.99559854386 0.99562527845 0.99608449464 0.99688952356 0.99845350343 
0.99983280477 0.99979045141 0.9988834977 0.9974540882 0.99624986051 0.99432634204 0.99305075275 0.99619885052 0.99454231558 
0.99332953088 0.9945129564 0.9979620127 0.99822934658 0.9984115099 0.99837084892 0.99820749874 0.99716152128 0.99570431496 
0.99600956527 0.99677495839 0.99759089371 0.9945741183 0.9921977206 0.99345928584 0.99638547936 0.99836181188 0.99900800198 
0.99860766122 0.99710787051 0.99535088168 0.99486905474 0.9967014742 0.99764050402 0.99650314352 0.99598650274 0.99598669322 
0.99665983618 0.99804565938 0.99619694329 0.99294979985 0.99038547844 0.99171448862 0.9915737115 0.99293535435 0.99423798256 
0.9939104163 0.99379150958 0.99548039133 0.99788056219 0.99723021852 0.99589864056 0.99121247795 0.98518883101 0.99432163844 
0.99295685051 0.9976172583 0.99870181342 0.99881099331 0.99857251801 0.9972120417 0.99577482274 0.99375460453 0.99473451216 
0.99585820699 0.99750702765 0.99845091356 0.99839855241 0.99844745091 0.99842238692 0.99960398018 0.99853628966 0.99842078977 
0.99791286531 0.99663831102 0.99378197405 0.99186445321 0.99384703162 0.99561556785 0.99604248615 0.99608174192 0.99756005887 
0.99855208749 0.999131748 0.99931732361 0.99881352693 0.99894747638 0.99925528382 0.99934608832 0.99943266736 0.99833354123 
0.99797699888 0.99795827614 0.99736471473 0.99446183277 0.99047166036 0.97946439903 0.97276224475 0.98237954272 0.99179487886 
0.99256686614 0.99294449889 0.9909460006 0.98838243006 0.98828215757 0.9896162213 0.99192838037 0.9937443105 0.99448179385 
0.99331089898 0.9869257593 0.98276749045 0.99342562907 0.9967918106 0.99541704751 0.99479503368 0.99477881888 0.99728381573 
0.99774378367 0.99715062565 0.9978677256 0.99734741145 0.9974460621 0.998392171 0.99874894496 0.9962395715 0.99265154456 
0.99188417371 0.99643289712 0.99827696951 0.99889690173 0.9982289998 0.99757076987 0.99685188752 0.9954381443 0.99503241502 
0.9965594468 0.99739008837 0.99729477254 0.99546469148 0.99316613625 0.99441831936 0.99704242752 0.99681313827 0.99418431031 
0.99337166102 0.99486886472 0.99542799835 0.99460741937 0.99535583972 0.99497288216 0.99390586462 0.99479033399 0.99544220628 
0.99543815936 0.99544427908 0.99517974115 0.99766352948 0.99809411289 0.99830184756 0.99846945519 0.99888496194 0.99920457834 
0.99872143736 0.99712181797 0.99145412766 0.99411564353 0.98887430592 0.98905738456 0.98897407634 0.99777553956 0.99724508422 
0.99918288001 0.99618971239 0.99880831947 0.99864106659 0.99708350797 0.99553891955 0.99465642419 0.99627810287 0.99662794934 
0.99722900973 0.99805552253 0.9981333844 0.99594614668 0.99495243605 0.99529223286 0.9986202185 0.99606971338 0.99811213587 
0.99639719616 0.9949668559 0.98842133665 0.98695451504 0.99382333851 0.99743172962 0.99633566458 0.99645384424 0.99821605376 
0.99881906887 0.99887972033 0.99852758386 0.99820242022 0.99841873788 0.99932932028 0.99930481612 0.99881645312 0.9972811973 
0.99536244935 0.99607006431 0.99592860825 0.99365883908 0.96557654999 0.94227233653 0.94462928963 0.96322201355 0.98752300178 
0.99558459453 0.99581680135 0.99519490422 0.99397734604 0.98987363827 0.98545343372 0.98437368449 0.98416596527 0.99035110283 
0.99210596787 0.9935801307 0.99586578879 0.9983994331 0.99639875687 0.99646767108 0.99414321677 0.9940409706 0.99479666581 
0.99545249362 0.99305738137 0.99797009854 0.99762174886 0.99684333265 0.9963857098 0.99629783568 0.99728654629 0.99804963758 
0.99881155895 0.99923233213 0.99809949076 0.99497929853 0.99425445323 0.9941387612 0.99502043058 0.99664937357 0.99837457092 
0.99841076475 0.998115018 0.99439877867 0.99346895562 0.99588948939 0.99741145625 0.9966187694 0.99532474588 0.99436274161 
0.99480505142 0.9961865039 0.9982786393 0.99659887024 0.99315073483 0.99420122722 0.99562008878 0.9960153643 0.99597384087 
0.99592936254 0.99562144331 0.99524173904 0.99439574455 0.99399206087 0.99289431965 0.99386355155 0.9960124347 0.99747799761 
0.99802045007 0.99686852594 0.99765935257 0.9987589212 0.99934885625 0.99829372101 0.99831021696 0.99587575883 0.99120644722 
0.99361687514 0.99321962507 0.99655876141 0.99731537196 0.99669373587 0.9960047404 0.99414759955 0.99460527961 0.99097299665 
0.99245294603 0.99297860762 0.99487010253 0.99689365711 0.99670908158 0.99709818288 0.99768551827 0.99842929174 0.99934165566 
0.99933700687 0.99918402059 0.99858997695 0.99760170047 0.99687481444 0.99716204659 0.99814227352 0.9979318123 0.99863142386 
0.99739590434 0.99422952691 0.99158097597 0.9908914775 0.99493297447 0.99719087557 0.99664715853 0.99613085544 0.9960455724 
0.99727453858 0.9982981232 0.99698203781 0.99525430944 0.99313132841 0.99222371467 0.99279194637 0.99569745396 0.99815663554 
0.99751370342 0.99707047281 0.99462936411 0.99278429598 0.9907031452 0.99209232289 0.99582053587 0.99782431383 0.99895156655 
0.99880765135 0.99674951086 0.99685415878 0.99663302004 0.99802395991 0.99825903049 0.99850937199 0.99188199091 0.99544730195 
0.99176678567 0.98997556735 0.98491334272 0.97118262607 0.9597288865 0.96281417569 0.986547753 0.99086782312 0.98959119187 
0.99203969672 0.99537585446 0.99793392025 0.9988559845 0.99858845939 0.99834149641 0.99858122252 0.99924039685 0.99941302448 
0.99764085248 0.9977886012 0.99926392039 0.99857289887 0.99759767907 0.99696569506 0.99376848614 0.97651135082 0.96043361084 
0.97080120726 0.98757666774 0.99615822121 0.99759886608 0.99861111356 0.99763990415 0.99439745179 0.98607472006 0.97881984131 
0.97762202349 0.9934952995 0.98939151421 0.99570933973 0.99674498849 0.99732576026 0.99711275125 0.99700043845 0.99742078524 
0.99573007935 0.99640939856 0.99730128995 0.99695959935 0.99570260179 0.99730841352 0.99741406007 0.99577847471 0.99319561228 
0.99631160176 0.99903333849 0.99801167895 0.99691951201 0.9948628012 0.99641445438 0.99100501624 0.98563011005 0.98743149695 
0.99133412073 0.98040737371 0.9589776136 0.96448476149 0.99185042995 0.99609733919 0.98920672473 0.99206467663 0.99797748465 
0.99912091209 0.99908457252 0.99895488399 0.99921028243 0.99932528959 0.99929946309 0.9989557022 0.99792972951 0.99728762778 
0.99862742533 0.99872419823 0.99759814862 0.99658261284 0.994807079 0.9926253782 0.9828492436 0.97918043414 0.98471144693 
0.99240819811 0.99524124139 0.99798481239 0.99870747089 0.99819950141 0.9960557071 0.98475027649 0.99461913112 0.99456929867 
0.9928599817 0.99475111862 0.991746903 0.99235152346 0.99386622211 0.99560842926 0.99665805075 0.99713632207 0.99704697648 
0.99544468636 0.99506311988 0.99506992765 0.99559092869 0.99732763086 0.99778493152 0.99728756786 0.99664593344 0.99662115602 
0.99610720779 0.99675143569 0.99854494453 0.98367419805 0.9830931495 0.99642232852 0.99754825636 0.99173638265 0.98749250573 
0.98860313059 0.99187787206 0.99431101873 0.99480252342 0.99569291504 0.99590290402 0.99593060253 0.99667271223 0.99741086961 
0.99793223958 0.99886820658 0.99925320181 0.99705936154 0.9961373678 0.99737652603 0.99808149047 0.99801757626 0.99830422291 
0.99693111699 0.99370999459 0.99051967417 0.98960329831 0.99199144391 0.99316516354 0.9912538956 0.99082314007 0.99143107942 
0.99384368951 0.99478252622 0.9961667751 0.99768209017 0.99572718235 0.99406655506 0.99082515107 0.99090330834 0.99171783624 
0.99594801139 0.99910638392 0.9975412505 0.995029332 0.99108791629 0.99021204246 0.99140632137 0.99385422922 0.99757959332 
0.99837526072 0.99787841525 0.9979999148 0.99767588378 0.99791480994 0.99796555253 0.99664280115 0.99446384984 0.99264782959 
0.99816325194 0.99899229174 0.99479655767 0.99604701052 0.99439153815 0.99695222375 0.99795183888 0.9970910276 0.99607508925 
0.99544635523 0.99609976082 0.99424881303 0.99256543177 0.99542595219 0.99654354338 0.99744508038 0.99736721415 0.99678238787 
0.99631907935 0.99767002014 0.9992054326 0.99632230538 0.99525706796 0.99689794716 0.9971223902 0.99751246786 0.99772897218 
0.9960720891 0.9936898066 0.99120007333 0.99035880685 0.99235366205 0.9937199934 0.99263374932 0.99257513693 0.99325310364 
0.99323805023 0.99267403621 0.99247210996 0.99376075658 0.99513082953 0.99549183185 0.9949488042 0.99490745186 0.99673446044 
0.99833261744 0.99689688687 0.9940103838 0.9912531006 0.99208728994 0.99320511801 0.99351790666 0.99503235975 0.9958662052 
0.9939977637 0.99355233535 0.99414730553 0.99473820554 0.99699123722 0.99907155984 0.9972531672 0.99665554762 0.99773565504 
0.99848270379 0.99875430376 0.99819241398 0.99632560909 0.99511744443 0.99839954031 0.99768522454 0.99789858449 0.99636522597 
0.99381159218 0.98841275869 0.98660647317 0.99000723541 0.99265513631 0.99475578724 0.99615148641 0.99773007003 0.99930975534 
0.99878772421 0.99824191663 0.99830879047 0.9986289611 0.99559304555 0.99725735018 0.99136073577 0.99104611766 0.99323507674 
0.99599265821 0.9972460392 0.99769232261 0.99567323272 0.99756732967 0.99468501198 0.99454235778 0.99533945669 0.99699773908 
0.99701705726 0.99703854728 0.99658831137 0.99773275043 0.99668645334 0.99626165979 0.99866374017 0.99656057227 0.99695372783 
0.99684206959 0.99606125564 0.99394884647 0.99267691876 0.99306082108 0.9938172832 0.99361040069 0.99305521225 0.9931782023 
0.9945594551 0.99425647209 0.99260680234 0.99189226745 0.99126416392 0.99335407873 0.99564207035 0.9961549685 0.99672488673 
0.9982694436 0.99905219873 0.99737238422 0.9940436069 0.99243463831 0.99246582332 0.99118220295 0.99014604171 0.98982405161 
0.991645572 0.99777094567 0.99846640331 0.99398816329 0.99347003474 0.99418664817 0.99440106869 0.99422745756 0.995933896 
0.9973176319 0.99551653056 0.99294973007 0.99159778781 0.99755371482 0.99778553277 0.9975672023 0.9989971376 0.99900539863 
0.99891269421 0.99825915539 0.99729370062 0.99547493381 0.9992274774 0.99836512686 0.99621350889 0.99523262937 0.99809000867 
0.99832680056 0.9982124494 0.99847499077 
Circumferential 3 1101 double
0.046920105126 0.49021628225 -0.8703370039 0.010652240266 0.51127444855 -0.85812232791 0.095261280619 0.46109409775 -0.87867455357 
0.14268450445 0.37507438484 -0.89196015764 -0.025615624593 0.53233261486 -0.84590765193 0.045594240474 0.50416359253 -0.86059857725 
-0.050101610413 0.57595459016 -0.81372563347 0.0084038785288 0.56354416571 -0.82229598781 -0.07318455339 0.6222635724 -0.77916580781 
-0.042093815373 0.61615925703 -0.78540139414 -0.063118111753 0.67602480066 -0.73163319647 -0.048392085165 0.68298890586 -0.72734511349 
-0.062265400108 0.72846071138 -0.68041016749 -0.057959220675 0.73151280775 -0.67759572405 -0.089700281021 0.77649317269 -0.62112866706 
-0.096034036917 0.75511618898 -0.64727645935 -0.12207535388 0.8048892519 -0.57955379382 -0.1090635549 0.76884601141 -0.62956724231 
-0.15673899102 0.82313777124 -0.5449290676 -0.12373330665 0.79950236999 -0.58476431492 -0.18417714458 0.86031358708 -0.47273555374 
-0.1346253696 0.86435173938 -0.4778126512 -0.17413800982 0.91567482537 -0.34542942183 -0.13550237178 0.91973033099 -0.36533509184 
-0.15658767155 0.96260571133 -0.21262422141 -0.13927527003 0.95809278852 -0.22283003461 -0.15064804907 0.98166438651 -0.11032867373 
-0.14017154464 0.98356305221 -0.064910368081 -0.12336150637 0.99170248787 -0.0090727095917 -0.12089551151 0.98714923693 0.078412796597 
-0.13447606611 0.98844768677 0.059590687661 -0.1243843251 0.98482678658 0.110970009 -0.1385780841 0.98101204914 0.12855213865 
-0.12302544247 0.98028692959 0.15086985938 -0.13848011564 0.96269631879 0.22081808976 -0.1289560791 0.96191373345 0.23531228686 
-0.13776007025 0.94031550704 0.31106478043 -0.11197164964 0.94652202326 0.29893423948 -0.12877831708 0.946177797 0.29692088648 
-0.037476811889 0.95928911592 0.27888556799 -0.15135742635 0.93677670914 0.31480704752 -0.01800098652 0.95886612492 0.28189327154 
-0.07579006984 0.91384868266 0.37714923556 -0.01358460298 0.92206013015 0.37386258151 0.038106516205 0.88011620315 0.46703145402 
0.0063204620962 0.87713797354 0.47801195962 -0.099323208661 0.8524741597 0.49590620325 -0.027178962503 0.8272058806 0.55154706994 
-0.16034632352 0.799527326 0.55884105279 -0.085924747674 0.73999232157 0.65554131832 -0.010618817216 0.6767828627 0.71572310528 
-0.096847475835 0.61255911704 0.77426548873 0.00068224719741 0.53555764358 0.8292679655 -0.024579161004 0.41533695794 0.88762472494 
-0.071571609712 0.38317734399 0.91665427074 0.020081556511 0.20665799577 0.97143505563 0.017411534646 0.14750012101 0.95942404197 
0.10209232692 -0.002666572511 0.97480259943 0.13492781476 -0.094588494511 0.97892345633 0.19206795091 -0.19618155444 0.96073265483 
0.27822555962 -0.29307395081 0.88621585661 0.22769231178 -0.32277561688 0.90975675153 0.33600696385 -0.45691617861 0.8161191145 
0.25246225259 -0.43572988011 0.86295991274 0.224686785 -0.55225424989 0.79073349765 0.24705303692 -0.51773797791 0.81442279379 
0.17437341235 -0.63305567177 0.75090062841 0.23811181701 -0.59328953202 0.7681585584 0.23836565192 -0.68662045054 0.68399861506 
0.2079017612 -0.63175179058 0.74572165464 0.2163969475 -0.76472855809 0.59543811845 0.18719328049 -0.6897345935 0.69490700023 
0.167133724 -0.84724566202 0.5041911503 0.1632007068 -0.77119276061 0.61406066011 0.15634401151 -0.83767700149 0.5230675412 
0.14790995751 -0.80793760133 0.56982878966 0.12675469582 -0.8599030076 0.48946192007 0.12588638382 -0.84726102373 0.51350524631 
0.08639746847 -0.90283972223 0.42118020595 0.10933031807 -0.88643535798 0.44877276484 0.083436649512 -0.90856831555 0.40921326134 
0.092918444618 -0.90509221434 0.41460428437 0.050071876574 -0.91749148266 0.39174573252 0.060994091866 -0.91843161649 0.38941435174 
-0.0062424214293 -0.92882597927 0.37012625047 0.030806418535 -0.93056826251 0.36461775659 0.0098486078336 -0.93840244679 0.34445515634 
0.0041850800344 -0.95257230575 0.29940524316 -0.011288087936 -0.95737985557 0.25957069316 -0.016552470342 -0.9775522782 0.18520435667 
-0.094222288495 -0.99084802275 0.084433970453 -0.033907167359 -0.99800292798 0.0096378869216 -0.069947203483 -0.98274237017 -0.12159201242 
-0.025737419876 -0.99112322829 -0.1170351564 -0.053568187789 -0.97271534804 -0.22319040417 -0.0029414604542 -0.9697149621 -0.23434046248 
-0.051779220308 -0.95889663751 -0.27511933282 0.015555345901 -0.94913038595 -0.30550270319 -0.075039870762 -0.93345699664 -0.34605474413 
0.036732464567 -0.9124365665 -0.39801089705 -0.04960650501 -0.87330388336 -0.4606540817 0.047388196501 -0.8466769706 -0.51551639097 