# vtk DataFile Version 5.1
vtk output
ASCII
DATASET POLYDATA
POINTS 1118 double
69.938568115 74.786445618 26.933731079 69.753840644 73.736597053 25.652474961 68.185612252 74.061294992 25.837254263 
68.504947534 75.02727559 27.206880505 69.56599785 72.557011634 24.541720497 67.90295655 72.834481701 24.65176586 
69.370186198 71.045564995 23.867101835 67.606585217 71.298618053 23.989024328 69.179576232 69.51028393 23.254580079 
67.382036963 69.70762018 23.370231764 68.999858298 67.925094956 22.772085656 67.230445332 68.058057145 22.880925367 
68.841249883 66.331619205 22.312753534 67.131086095 66.412742389 22.363855478 68.735193311 64.71751364 21.911083625 
67.064696314 64.796355068 21.79421615 68.649992251 63.081541858 21.671702538 67.035235796 63.148232579 21.354080184 
68.593075307 61.41591525 21.652416543 67.020017298 61.472451033 21.016351329 68.384502238 59.789151506 21.426489638 
66.924025476 59.786569925 20.750614041 68.092401388 58.183792296 21.086750934 66.858796227 58.096931868 20.524886249 
68.192803415 56.579576561 21.242608832 66.958296233 56.391620453 20.572097671 68.460196812 54.975847322 21.609319596 
67.160826574 54.689550957 20.768946683 68.620658318 53.353576466 21.954232984 67.225431934 52.984521625 21.281419788 
68.797783902 51.755213871 22.34915077 67.381910696 51.346579443 21.924479949 69.218777378 50.374096616 23.181738968 
67.653809862 49.875286687 22.849549709 69.611455374 49.024880277 24.06161859 67.966523493 48.509023631 23.916689825 
69.800596853 47.904973183 25.281437056 68.195774723 47.338052329 25.207437796 69.989738332 46.78506609 26.501255521 
68.498759542 46.173190902 26.52453781 70.248667626 46.137915462 28.003280925 68.73268431 45.511963518 28.101098979 
70.515752514 45.546012439 29.538285798 69.074411935 44.876472736 29.667603484 70.918634716 45.056831679 31.068868756 
69.493490418 44.46718291 31.302346345 71.478915942 44.686713538 32.594326392 70.010124617 44.217207397 32.918704018 
72.019712573 44.653851927 34.114164597 70.567945754 44.238701568 34.527932415 72.53072849 45.136461147 35.625413935 
71.092238329 44.555860817 36.088397677 73.029930746 45.554139374 37.158895381 71.433808573 45.34930297 37.56120967 
73.517261064 46.028631589 38.669769693 71.903365281 46.048688407 39.073654153 73.987173744 46.808941436 40.065556962 
72.357109867 46.648410809 40.571514031 74.35945866 47.377484354 41.582806764 72.748848436 47.306435046 42.041862148 
74.727040945 48.036981041 43.05986109 73.1175142 48.012583939 43.50357774 75.112029649 48.853429836 44.460967005 
73.482926917 48.854779102 44.889089876 75.457040258 49.70454035 45.851830788 73.846749114 49.714223471 46.253000844 
75.823997528 50.684399293 47.135586168 74.213931553 50.738462993 47.509111787 76.217966497 51.822720319 48.28751376 
74.59179763 51.869479555 48.641231495 76.64883886 53.027383782 49.353644467 74.967274913 53.115134904 49.647224029 
77.092150105 54.254409029 50.390855955 75.336568795 54.369306764 50.629743496 77.392741668 55.714631558 51.125863113 
75.622059649 55.820116036 51.357838309 77.651532592 57.222496428 51.765442456 75.856424538 57.299438471 52.071027829 
77.778010566 58.851776394 52.093121568 76.014797929 58.885966723 52.438868252 77.879129182 60.495759982 52.336092829 
76.135831855 60.503486566 52.73366502 77.961369023 62.15068968 52.516003333 76.220030629 62.138306129 52.925433594 
77.970112206 63.817185172 52.535116929 76.259882517 63.801831271 52.949848546 77.991587494 65.476431932 52.453132384 
76.291504872 65.469233315 52.884905998 78.036259607 67.122931295 52.19824469 76.312262774 67.095151126 52.598707761 
78.041408427 68.720998118 51.746544878 76.304997685 68.687238701 52.113477526 78.027977072 70.296296466 51.202322314 
76.264763712 70.217062141 51.509519643 77.909382676 71.676008656 50.291957899 76.154921667 71.643789512 50.669646512 
77.772729144 73.022133789 49.318717731 75.999499513 73.023901273 49.781027418 77.5143941 74.188539761 48.160267462 
75.78133851 74.245120144 48.646659722 77.243090097 75.335791055 46.982077284 75.523949109 75.355466168 47.445862614 
76.912852697 76.155524325 45.574146761 75.242888259 76.288921293 46.089137869 76.57734056 76.945943629 44.145653703 
74.930463815 77.114086964 44.691083825 76.269293551 77.664655172 42.673871003 74.603873744 77.859102189 43.243822693 
75.9486273 78.359940767 41.195832372 74.257456851 78.576099881 41.803213958 75.470644745 78.824284768 39.668141037 
73.781996217 78.909873376 40.224860105 74.946404941 79.162849178 38.136474909 73.26197457 79.170981979 38.669737691 
74.312880488 79.204254143 36.595418167 72.691041538 79.314373091 37.122339132 73.674798443 79.035703931 35.074272657 
72.079049237 79.209639374 35.585465003 73.033799235 78.732768364 33.565871668 71.456387389 78.879363564 34.104539722 
72.337184635 77.937112824 32.281776608 70.788583691 78.081206464 32.796458623 71.648271196 77.131928715 30.995583347 
70.128925803 77.231840936 31.495147831 70.9851634 76.348662189 29.682303069 69.505812414 76.424050299 30.147855471 
70.430081459 75.567063252 28.321886052 68.961692547 75.722707109 28.685083459 46.892562866 73.152351379 46.605148315 
47.099500473 73.087700015 48.303063077 48.620757384 72.896457749 47.977834372 48.468209533 73.603845042 46.567554393 
47.213798153 72.380096962 49.754821815 48.666386466 71.853665517 49.131205054 47.270769829 71.170874836 50.945747943 
48.705261042 70.652815311 50.177958399 47.332399941 69.740601019 51.884063478 48.771479318 69.33676053 51.138177443 
47.358536924 68.290042049 52.792396732 48.832666692 67.978259962 52.062218051 47.399306167 66.876473609 53.75578428 
48.90362145 66.611960378 52.956125527 47.418660858 65.37242466 54.519582294 48.933776572 65.146904189 53.655669704 
47.41231725 63.733560586 55.008096304 48.951908285 63.606146279 54.199180411 47.46840229 62.144581684 55.642066354 
48.926312602 62.016652422 54.55686527 47.436190798 60.466954309 55.947817606 48.865298618 60.394777556 54.71574848 
47.348398228 58.781456723 55.891376143 48.743825277 58.769119811 54.616070623 47.215858822 57.109523841 55.554271645 
48.66865221 57.131472158 54.392516874 47.048282563 55.460842443 55.125686351 48.529014963 55.512307522 53.993695749 
46.912659404 53.824425967 54.64284261 48.444019729 53.872103758 53.613446712 46.772971928 52.237518469 54.036607689 
48.320025635 52.285700011 53.093876067 46.620681213 50.724695161 53.250420254 48.175232256 50.749949314 52.46982459 
46.517491137 49.230151933 52.423262066 47.971940717 49.319511068 51.750950915 46.430053519 47.741473317 51.58295965 
47.800864708 48.029268703 51.069196148 46.414594422 46.402211361 50.522782389 47.897409517 46.885398513 50.161545611 
46.410598673 45.086745603 49.427587711 48.022242156 45.658191637 49.101521602 46.476276818 43.882604652 48.216761056 
48.12096797 44.428365397 47.939351047 46.563680301 42.713176405 46.969878658 48.232267029 43.215595887 46.71883985 
46.556711907 41.852472487 45.551968083 48.268930234 42.177950676 45.252885504 46.423468332 41.404860072 43.905211639 
48.168180519 41.687218792 43.605573068 46.292532568 41.148560872 42.236878695 48.010185878 41.432340067 41.862593741 
46.165565371 41.221248454 40.531442283 47.800911835 41.615420926 40.172651161 46.002718568 41.46223331 38.865584717 
47.567991929 41.961409595 38.504207377 45.759035357 42.082390324 37.288897912 47.271068688 42.606393072 36.961360231 
45.491735536 42.725390143 35.728539222 46.93731377 43.274560817 35.429106784 45.043728414 43.543176344 34.293118428 
46.501158554 44.091511421 34.01277426 44.595721292 44.360962546 32.857697634 45.982060287 44.991886056 32.678151578 
43.643445122 45.423519596 31.934509598 45.243465188 46.091157913 31.712297296 42.654625413 46.503814782 31.048442219 
44.469284953 47.170132445 30.802596354 41.927298131 47.751199642 30.217829695 43.857657337 48.380325795 30.037156046 
41.607912978 49.2592533 29.473729705 43.495458872 49.662777713 29.332774489 41.723854438 50.72782345 28.719020224 
43.523157503 50.974779297 28.59754941 42.272867398 52.157114628 27.953756213 43.745245652 52.33213672 27.878687636 
42.391486601 53.688851281 27.250326711 43.876439366 53.795751993 27.195889024 42.346341759 55.265768931 26.593268403 
43.908087999 55.315905072 26.524195268 42.262515657 56.951681258 26.30938406 43.9097161 56.955825384 26.141805984 
42.237014119 58.643002408 26.059396971 43.920190772 58.639445015 25.846489059 42.290548206 60.341653053 25.855344053 
43.960662591 60.348014015 25.639507612 42.382699184 62.048251426 25.828057969 44.018679885 62.074259094 25.596191726 
42.472532762 63.756427308 25.856958679 44.068519979 63.803284279 25.665974245 42.431077157 65.460106677 26.017194594 
44.072685604 65.520949561 25.857544857 42.404824457 67.141606637 26.269457614 44.057973827 67.216282107 26.132838644 
42.441668079 68.731055822 26.903658958 44.059496763 68.773355631 26.793041706 42.397219824 70.290690962 27.588807555 
43.991167256 70.26749667 27.527088121 42.142942761 71.773370744 28.40546008 43.861394636 71.637636129 28.402142277 
42.072595726 73.171536706 29.338366738 43.826433568 72.94290628 29.282642143 42.339087471 74.414928962 30.484174469 
44.090772738 74.048135092 30.299925033 42.933045893 75.367939737 31.703748822 44.617469399 74.969337284 31.410032319 
43.828776011 76.053354086 32.99130163 45.375883633 75.526236932 32.67908607 44.604273136 76.471934931 34.434445089 
46.144669535 75.995292322 34.054175993 45.302454043 76.718927624 35.977641622 46.823245429 76.294770464 35.574603577 
45.724794863 76.624097731 37.628210974 47.34475587 76.489788272 37.203019372 46.088090613 76.511612795 39.29532191 
47.68258092 76.569875021 38.925860069 46.303197561 76.453759805 40.992466435 47.908880339 76.258335902 40.59542584 
46.489115702 76.153627944 42.642579357 48.086984576 75.869940014 42.234306869 46.636092049 75.530263474 44.229945792 
48.225136493 75.299025396 43.802219106 46.767819882 74.446706927 45.492044361 48.346044782 74.439903129 45.18716916 
[...]
POINT_DATA 1118
FIELD FieldData 21
Circ_Strain_Pt 1 1118 double
0.99364638639 0.99123615771 0.98556537543 0.99396794408 0.9909269944 0.98154433594 0.99599226474 0.97935171293 0.9992849026 
0.98237378808 0.99886575051 0.9938912595 0.99776027452 0.99871885916 0.99494620515 0.9989501852 0.99191873623 0.99783670807 
0.98860185618 0.99818704363 0.98880744367 0.99894328038 0.99095310376 0.99803791965 0.99291627335 0.9972528166 0.99480180188 
0.99723436219 0.99394301243 0.99772849969 0.99303378959 0.9979585403 0.99440351957 0.99694422134 0.99551606962 0.99505343003 
0.99477996635 0.99462497391 0.99404386309 0.99490107384 0.99394074917 0.99542968908 0.99391160811 0.99634243856 0.99226572265 
0.99374411515 0.98874591214 0.98898851937 0.98935485199 0.9876786753 0.99627427126 0.98683928451 0.99700806015 0.98507219581 
0.99477173024 0.99024614223 0.99409375003 0.99333359191 0.99579909279 0.99494980961 0.99734788673 0.99704994675 0.99813721889 
0.99854251618 0.99750875438 0.99745275812 0.99735447259 0.99727371134 0.99778380944 0.99808216574 0.99716778074 0.99848749273 
0.9961993948 0.99705935955 0.99639792574 0.99642521387 0.99698857363 0.99661399785 0.99889202213 0.99828353604 0.99946201343 
0.99964106592 0.99903931254 0.99901623595 0.99849704662 0.99848677495 0.99780504864 0.99829523164 0.99685517294 0.99823988206 
0.99666622483 0.99771199329 0.9968349941 0.99684566882 0.99640767028 0.99672640516 0.9958779823 0.99699654653 0.99579933345 
0.99757715424 0.99576875687 0.9982981481 0.99721591237 0.99843534625 0.99879532987 0.99829388706 0.99704934398 0.99752810222 
0.99532501666 0.9967928998 0.99550311104 0.99703247604 0.99572812341 0.99686212992 0.99606398143 0.99568153073 0.9944708834 
0.99398851996 0.99164312449 0.9909982745 0.99591748823 0.99269473483 0.99911860741 0.9961380212 0.99878557829 0.99687392053 
0.99672444117 0.99581128799 0.90025624489 0.96252889509 0 0.97320798868 0.99147916995 0.99728664938 0.99722071707 
0.99867403311 0.99831614511 0.99908498112 0.99879301549 0.99948664637 0.99532032503 0.99757811691 0.99194435564 0.99756795373 
0.99175349271 0.99837104181 0.99576078378 0.99878026248 0.99637553651 0.99785878994 0.99687083698 0.99723007314 0.9979024537 
0.99756847397 0.99942675462 0.99805188164 0.99905543716 0.99719582348 0.99873543554 0.99759691943 0.99886980561 0.99873096174 
0.99893096834 0.99888395935 0.9989686447 0.99877237866 0.9990809147 0.99867682261 0.99920506452 0.99797697575 0.99447621552 
0.99499493065 0.98823413047 0.99104829361 0.9860354465 0.98759352969 0.9892470735 0.9863875084 0.99180292079 0.98740918981 
0.99323107358 0.99100391108 0.9946554255 0.99366393165 0.99607121404 0.9965500484 0.99679249055 0.99622154569 0.99219956669 
0.99352630692 0.987606643 0.99148004169 0.98774046356 0.99319045727 0.98821681999 0.9961001323 0.99037721101 0.99824965762 
0.99516478626 0.99894710757 0.99816832499 0.99926352704 0.99939706885 0.99873090691 0.99794267379 0.99764807113 0.9956720194 
0.99671936809 0.99645397579 0.9975176646 0.9974506046 0.99865205461 0.99873813602 0.99913012177 0.99925755817 0.99928499835 
0.99934066307 0.99775398603 0.99674623962 0.99571956169 0.99497437048 0.99494248004 0.99661633266 0.99603002722 0.99794113962 
0.99783082574 0.99844731247 0.99784802498 0.99825950832 0.99669238841 0.99680079497 0.99461034371 0.99579291925 0.99352959727 
0.99520050576 0.99387506856 0.99459241217 0.99555340793 0.99397423543 0.99777564376 0.99401306358 0.99688903103 0.99438914349 
0.99518313396 0.99596207034 0.99364076475 0.98965356347 0.99303652527 0.97283016372 0.9928187594 0.9401702906 0.98110709644 
0.97628804892 0.98707015138 0.9781426048 0.98170113564 0.98986007173 0.9966909401 0.99777635883 0.99759000011 0.99647953843 
0.99588417052 0.99554860211 0.99496967111 0.99466791572 0.99565677413 0.9962734879 0.99582106403 0.99562735582 0.99640820772 
0.99655075845 0.99428490622 0.99171561284 0.99334995548 0.99522293841 0.99070024595 0.98546554331 0.98396500928 0.98494729337 
0.98935523585 0.99473199278 0.99888771792 0.99777778347 0.99590796714 0.99553620509 0.99629986035 0.99702303067 0.99822988616 
0.99793546816 0.99831094541 0.99883952259 0.99894569473 0.99892337571 0.99843322775 0.99845365928 0.99855875051 0.99793760919 
0.99736484726 0.99746749752 0.99774944915 0.99830530246 0.99865759085 0.99874915976 0.99876061905 0.99751063286 0.99610992768 
0.99651700695 0.99724398502 0.99727583481 0.99326662903 0.98868468994 0.99182834364 0.99682074925 0.99436407217 0.99326992346 
0.99484214184 0.99904608703 0.99639090987 0.99896261399 0.99955643749 0.99887568744 0.99769717311 0.99686742449 0.9977464449 
0.99895479222 0.99897331284 0.99696665148 0.99682901203 0.99754533602 0.99854742035 0.99871866053 0.99883305522 0.99831739971 
0.99819352669 0.99812264917 0.99793745999 0.99428392364 0.98443737145 0.96804287734 0.97249184357 0.98410858305 0.99281199728 
0.99809830815 0.99827908352 0.99722719603 0.99484544199 0.99399488105 0.99450336642 0.99514387541 0.99644499203 0.99802403997 
0.99903200676 0.99922820725 0.99803555814 0.99678498969 0.99677653054 0.99834484226 0.99907039136 0.99906588839 0.9979485925 
0.99638916975 0.99565816412 0.99619556912 0.99684527799 0.99736747176 0.99652323592 0.99450859727 0.99431524224 0.99575925665 
0.9987278418 0.99819065445 0.99634736889 0.99345813123 0.99457853097 0.99487511021 0.99434059412 0.99380335867 0.99122945669 
0.99066604501 0.98741751237 0.99480825556 0.99576365883 0.99715777144 0.99704908978 0.99619795009 0.99487573339 0.9929829802 
0.99242750743 0.99021207491 0.98732118384 0.9906688708 0.99477343369 0.99646391313 0.99732260601 0.99690889301 0.99657533893 
0.99644023636 0.99607393218 0.99620626502 0.99631368835 0.99396303585 0.99081056822 0.99254395362 0.989786809 0.98569572112 
0.98941569111 0.99590463001 0.99793288247 0.99718769184 0.99595710927 0.99550565517 0.99571209009 0.99648236595 0.99779702381 
0.99825874888 0.99804814976 0.99796131332 0.99788467372 0.99804367711 0.99813392721 0.99798597476 0.99772425459 0.9977637382 
0.99784846774 0.99803073234 0.99829726845 0.99843326907 0.99863951877 0.99865667009 0.99788083702 0.99691216129 0.9955925877 
0.99528537112 0.9963484887 0.99548489761 0.99753998863 0.99635064463 0.99781099681 0.9961877321 0.99396314637 0.99151164721 
0.98905326744 0.99859129437 0.99839946013 0.99917520365 0.99933904537 0.99845052701 0.99796314116 0.99792195834 0.99904804636 
0.99931236882 0.99829728143 0.99813811133 0.99827374199 0.99820698217 0.99698646622 0.9950348957 0.99692071839 0.99804660068 
0.99815657811 0.97798539169 0.95840123113 0.94946212198 0.96025120986 0.98405048393 0.99480555521 0.99598792614 0.9974524402 
0.99726824212 0.99644267383 0.99779986049 0.99835860258 0.99830673958 0.99823377864 0.99900457061 0.99891767431 0.99702678985 
0.99572425453 0.99743334455 0.99854888658 0.99903878198 0.9988903153 0.99842974916 0.99742365644 0.99627809394 0.99533664159 
0.99616960968 0.99589931708 0.99519474811 0.9948517519 0.9949057743 0.99599723046 0.99793675364 0.9989732519 0.9993726305 
0.99804704311 0.99428983427 0.99139520283 0.9909892422 0.99534260635 0.9975583014 0.99795280331 0.99865634027 0.99339894964 
0.9983117323 0.99910494544 0.9983260537 0.99821164942 0.99837800914 0.99657876332 0.9941372171 0.99043813267 0.98799770682 
0.98924629254 0.99193681067 0.99393624555 0.99566988229 0.99749107426 0.99749260903 0.99676773916 0.99620524846 0.99623410401 
0.99586741411 0.99494461751 0.99480025267 0.99680764573 0.99311830533 0.98730965556 0.99190759305 0.99620586774 0.99773237673 
0.99713585915 0.99637588999 0.9959610777 0.99685081506 0.99796272327 0.99814474604 0.9975452397 0.99655577404 0.995721686 
0.99636283827 0.99671945768 0.99682760614 0.99692764509 0.99704192198 0.99786025367 0.9988273174 0.99866877549 0.99853148003 
0.99826718818 0.99822319685 0.99816697665 0.99761881431 0.99735911906 0.99670454038 0.99623933869 0.99701735175 0.99678308107 
0.98981624019 0.98840155397 0.99361952811 0.99742388974 0.9967599507 0.99485347223 0.99229847486 0.99098734471 0.99890439827 
0.99788931209 0.99892346738 0.99901352272 0.99864431233 0.99839658309 0.9988084467 0.99924407747 0.99929490731 0.99826390486 
0.9987419078 0.99679027598 0.99560602774 0.99554897926 0.99524989708 0.99679230964 0.99719654582 0.99733054388 0.98735923098 
0.97072601167 0.97049318585 0.9859606105 0.99436799336 0.99674325376 0.99740855139 0.99746471792 0.9974760856 0.99756269597 
0.99793346218 0.99877934967 0.99820681232 0.99811182682 0.99810176427 0.99857613875 0.99908251588 0.99899899912 0.99803702364 
0.99635180842 0.99510081021 0.99428640351 0.9945150252 0.99516196886 0.99654657169 0.99557852358 0.99669223282 0.99833957572 
0.99850174778 0.99851834258 0.99732215827 0.99238038844 0.99157729531 0.99545448696 0.99681078036 0.99598322673 0.99434247086 
0.99634220493 0.99817651719 0.99925611977 0.99794698645 0.99813549203 0.99901284392 0.99901523205 0.9970779613 0.99389276035 
0.99220328586 0.99005703106 0.99082458567 0.99642069807 0.99418945755 0.99813580703 0.99834489484 0.99741780911 0.99441291004 
0.99485873667 0.99555647967 0.99651552149 0.99689170577 0.99873170123 0.99695573285 0.9941099231 0.99317618906 0.99846556173 
0.99900932995 0.99907091124 0.99831345614 0.99762811772 0.99706090039 0.99821223904 0.99907090916 0.99775979135 0.99558801909 
0.9952047235 0.99600819295 0.99724042142 0.99689912216 0.9951731357 0.99550448265 0.99610358083 0.99751288994 0.99884906876 
0.99936398523 0.99861208254 0.99800895604 0.99790497224 0.99753764147 0.9968033414 0.99633859593 0.99611142348 0.99583072944 
0.9922891926 0.99246543644 0.99483264943 0.99603394016 0.9964635653 0.99837689409 0.9987618723 0.99590968241 0.99407478724 
0.99363177034 0.99573591445 0.99770620119 0.99781900932 0.99726247581 0.99618057559 0.99600849592 0.99697645579 0.99586266929 
0.99717901563 0.99568486732 0.99062305193 0.98861006096 0.99407513128 0.99787015278 0.99944481135 0.99915868951 0.99878310804 
0.99891921055 0.99944011192 0.99946002002 0.99965997449 0.99898240229 0.99798459968 0.99790936147 0.99829347255 0.9970582365 
0.99436637542 0.996586244 0.99569916959 0.99016938525 0.98917320269 0.99083694313 0.99296796227 0.9968779195 0.99596937716 
0.99555604182 0.99527951346 0.99601575735 0.99637659348 0.99694440765 0.99690884477 0.99821692255 0.99651477939 0.99557626589 
0.99811029902 0.99843108393 0.99883917125 0.99913516502 0.99930001512 0.99926425845 0.99855420914 0.99567704057 0.99388942661 
0.9927720579 0.9943428347 0.99012730874 0.99563091315 0.99843152579 0.9975213579 0.99786880776 0.99794953608 0.99804298215 
0.99824106205 0.99729373621 0.99278832633 0.99099899036 0.99645541465 0.99718949888 0.99677072902 0.99719158434 0.99727445911 
0.99731167229 0.99850885537 0.99910766033 0.99925720199 0.99828831446 0.99615362778 0.99622052291 0.99672001436 0.99809144869 
0.99812116015 0.99629992033 0.99625066518 0.99759910531 0.9988162351 0.99822760754 0.99653286258 0.99602179088 0.99721189878 
0.99870905335 0.99866568701 0.99770076188 0.99705178841 0.99653065131 0.99596400793 0.99534356078 0.99436277866 0.99384784554 
0.99407488925 0.99326325703 0.99213019625 0.99470347693 0.99602241107 0.99639283112 0.99740678493 0.99851928943 0.99902656173 
0.99884072452 0.99512337344 0.99464060581 0.9953205191 0.99672459706 0.99725406293 0.99704370942 0.99825803108 0.99873186235 
0.99865332511 0.99864982601 0.99888751882 0.99877924007 0.99952097959 0.99793882851 0.99486324595 0.99195557027 0.99095875371 
0.99010897638 0.98420548417 0.98529548902 0.98032692113 0.98918759816 0.99231237556 0.99397607044 0.99704095857 0.99765974696 
0.99650548991 0.9959671601 0.99652528676 0.9970657075 0.99647400077 0.99682008852 0.99719336847 0.99739983186 0.99766604635 
0.99841938103 0.99922845979 0.99875483471 0.9985542058 0.99868814862 0.99851659826 0.99869640569 0.99910956051 0.99907296316 
0.99858388916 0.99842809064 0.99885887318 0.99873027229 0.99618401985 0.99339339612 0.98994629677 0.9873471535 0.98811826208 
0.99313012088 0.99651335007 0.99790946716 0.99697886245 0.99623057282 0.99664356696 0.99664072916 0.99748180627 0.99742806598 
0.99551477139 0.9960667137 0.99783505857 0.99933823278 0.9993728974 0.99906273945 0.99708478345 0.99504679837 0.99382078696 
0.99317607674 0.9953062201 0.99810615763 0.99673606529 0.99886706752 0.99769763241 0.99707558177 0.99762837155 0.99940310492 
0.99763048716 0.99909452467 0.99807681347 0.99550929366 0.99465910776 0.99349595057 0.99701733475 0.99862803408 0.99747152126 
0.99729014465 0.99582022439 0.99273719718 0.99247083049 0.99244204414 0.99256684208 0.99279498744 0.99283738367 0.99369482659 
0.9946125229 0.99545543404 0.9955924335 0.99689737816 0.99897150508 0.99920397314 0.99902885119 0.99922839367 0.9984413706 
0.99570175656 0.99593866145 0.99738260963 0.99851200316 0.99772904727 0.99725930128 0.99867858742 0.99911654666 0.99897714461 
0.998876245 0.99823966002 0.99855976398 0.99903723894 0.99843022128 0.99744000809 0.99661164045 0.99686824652 0.99690502341 
0.99645001356 0.99540370692 0.99396982569 0.99317933307 0.99275488065 0.99236822448 0.99167187277 0.99408242605 0.9968482938 
0.99775641817 0.99861490217 0.99927919252 0.99903915696 0.99830753461 0.99607646947 0.99627221912 0.99655873301 0.99565593243 
0.99502073668 0.99652093035 0.99753090463 0.99725521573 0.99769920112 0.99828997789 0.99883493531 0.99890137436 0.99799454418 
0.99654672922 0.99483078747 0.98937104411 0.98503250866 0.99651323619 0.99619216717 0.99726115052 0.99809308075 0.9983446723 
0.99827456774 0.99776708034 0.99701468828 0.9979480605 0.99877132597 0.9991308653 0.99951946926 0.99948511516 0.99916582175 
0.9986304692 0.99893349969 0.99886528535 0.99821940044 0.99798580921 0.99852675427 0.99735098303 0.99770939111 0.99885499988 
0.99762046535 0.98859949881 0.98813374565 0.99452074288 0.99815488057 0.99751432653 0.99525667102 0.9931494172 0.99700169438 
0.99911807717 0.99736848825 0.9955191982 0.99312245428 0.98763147821 0.98847702738 0.98864931598 0.99090538487 0.99795731677 
0.99888244458 0.99919888267 0.99915273488 0.99795120725 0.99503944039 0.99395206984 0.99507714268 0.99587388264 0.99603496801 
0.99733344954 0.99883152944 0.99904442269 0.99878911092 0.99827066824 0.99808241756 0.99683509287 0.98121065044 0.98187517824 
0.98139046212 0.98472608061 0.99262809032 0.99329949777 0.9932305477 0.99367825234 0.99718838526 0.98987488731 0.98554972137 
0.99550850278 0.99614803768 0.99729266618 0.99887393517 0.9984039751 0.99769309101 0.9941239473 0.99512237711 0.99352238094 
0.99204834505 0.9933264727 0.99279541671 0.99231642812 0.99274287492 0.99321240171 0.99353936356 0.99416842111 0.99558338397 
0.99704471003 0.99847021281 0.99859261453 0.99758328603 0.99631255974 0.99621053462 0.9973376989 0.99827531808 0.99852908532 
0.99835542301 0.99856167464 0.99915080452 0.99909244268 0.99901649582 0.99841399802 0.99681817078 0.99655028557 0.99658784564 
0.99720704949 0.99797128652 0.99780346666 0.99788871289 0.9970506927 0.99495389149 0.99298551311 0.99171451258 0.99272175373 
0.99520540122 0.99906879729 0.99871561111 0.9978397592 0.99746088909 0.99699651152 0.99634385196 0.99419029088 0.99231472469 
0.99289844644 0.99431265056 0.99768212015 0.99899082328 0.99825787244 0.99682965467 0.99635564782 0.99743362799 0.99868663877 
0.99930633616 0.99939732473 0.99938184754 0.99945203491 0.99958374459 0.99925452106 0.99813910415 0.99804624164 0.99725730377 
0.99819626966 0.99797177946 0.99612480772 0.996747068 0.99549786397 0.992607349 0.99277611724 0.99532680632 0.99489243382 
0.99350238213 0.9968463985 0.99888791006 0.9991583274 0.99932128464 0.9993334656 0.99934136761 0.9993946631 0.9988095409 
0.99724324197 0.99683275898 0.99722053679 0.99852925923 0.99818584317 0.99642622841 0.99619348633 0.99639355412 0.99503361388 
0.9936918295 0.99398751525 
Circumferential 3 1118 double
-0.18537076404 -0.58402557042 -0.79028590582 -0.1644250904 -0.72569176323 -0.64536186662 -0.17462102377 -0.63570988317 -0.74269734514 
-0.1757296833 -0.50383193192 -0.84370008507 -0.16123470429 -0.84059902426 -0.50944534873 -0.16762566905 -0.7745441663 -0.59284128374 
-0.20346156993 -0.88705810385 -0.39656967783 -0.1374029242 -0.86657522209 -0.44920493569 -0.201869501 -0.92579569062 -0.31076291704 
-0.10150878449 -0.93340290834 -0.3422216647 -0.10852311544 -0.94836491764 -0.28163688966 -0.060095696681 -0.94609680313 -0.31512991006 
-0.036203798714 -0.96924550546 -0.23524397977 -0.020603189008 -0.95534740429 -0.29410309574 -0.0162310655 -0.98592225044 -0.14586541577 
0.010499248411 -0.95632484022 -0.29170025311 -0.00065395739057 -0.99476513999 -0.10119462166 0.03074974931 -0.97305091687 -0.2162147275 
0.0089618313435 -0.99298380361 -0.11715622649 0.070616316446 -0.98511297463 -0.14647470264 0.036639577807 -0.99295406486 -0.060258013011 
0.092440301907 -0.99145540937 -0.068615514881 0.07426532494 -0.99388905511 0.036769267986 0.090254251709 -0.994314892 0.01549118337 
0.093059962305 -0.98486922332 0.12496375279 0.082519716505 -0.98663765526 0.11035650685 0.103842855 -0.97161408657 0.20940030145 
0.074213437057 -0.97267260336 0.21387286823 0.075964030664 -0.94124168022 0.31262926523 0.049457130103 -0.94160467529 0.32087590753 
0.045070650285 -0.90349335658 0.42058865148 0.027225299919 -0.90408269185 0.422709202 0.027104089659 -0.82118124912 0.54944347697 
0.024789618579 -0.84494967191 0.52373853308 0.016601254818 -0.73503050535 0.67349214937 0.027827735445 -0.76180261156 0.63978349064 
0.059748958282 -0.62128698679 0.76299337078 0.022144972415 -0.65817288506 0.74020128688 0.10289666175 -0.50754346823 0.85249459218 
0.002602270808 -0.55321502568 0.83130767472 0.080752757727 -0.45875186318 0.8824632374 0.011552261004 -0.45946658286 0.88030330867 
0.050978699199 -0.41755071507 0.90547474414 0.021425542296 -0.37532651225 0.92307953522 0.061109238396 -0.2982902706 0.93348104899 
0.042521622386 -0.28868238595 0.95248871805 0.11749212622 -0.088553389959 0.96727669031 0.06342200835 -0.19898162689 0.97625223551 
0.12933955249 0.070611621413 0.98639910812 0.059743867293 -0.028687000734 0.98366169961 0.073117929326 0.15248139548 0.98309462518 
0.059092631599 0.15700792407 0.97855073782 0.13182029465 0.27246697158 0.94305087791 0.10621536135 0.32651662544 0.93353472665 
0.2101522486 0.37674914657 0.90136572258 0.15057808242 0.37987357404 0.91188182947 0.14257577737 0.35956412317 0.92156865342 
0.13399167536 0.36107010303 0.92257023589 0.12283520816 0.39451328803 0.91002831497 0.11733397655 0.42445881667 0.89626173118 
0.11334326583 0.44184556034 0.8891006229 0.092830984795 0.46948451985 0.87687604335 0.10472186203 0.4915388497 0.86445943403 
0.076335880942 0.5214887609 0.84954918793 0.13054670509 0.57774219586 0.80154382092 0.08349059517 0.58035529157 0.80782477787 
0.15222577689 0.65129490862 0.7407428377 0.09787216809 0.65852623158 0.74414253196 0.16880228118 0.70927736751 0.68254451659 
0.11851561517 0.72264073253 0.67896546688 0.17564755745 0.77318772755 0.6011198154 0.13140524703 0.78297073074 0.60366335042 
0.179212767 0.83909618187 0.51186628976 0.13789699273 0.8383815282 0.52551449049 0.16610609734 0.90201212993 0.37507451132 
0.12730989856 0.89327827475 0.42086249957 0.14641178969 0.95727969601 0.24482382838 0.13060673541 0.94170564481 0.30595980787 
0.10344028076 0.97870359822 0.1643913199 0.12286319366 0.96776337727 0.20869215301 0.095353789188 0.98990171182 0.085821262981 
0.11203214498 0.98492374435 0.12250654991 0.11323744818 0.99348723728 0.0086377080917 0.067393783234 0.99560666108 0.054757939778 
0.076898964374 0.99262046548 -0.066359888872 0.04680450587 0.9960064488 -0.034539735405 0.043235034288 0.98542723176 -0.14878068507 
0.028236126141 0.98893865844 -0.13508068439 0.01503208884 0.96732908442 -0.24410921847 0.013543086248 0.96513691179 -0.24820388124 
0.0018063434 0.92452128715 -0.36101140309 0.0027837525393 0.92985515949 -0.35724453596 -0.0043785156038 0.87009731068 -0.48805551199 
-0.0050016049348 0.8848279836 -0.45975567711 -0.0045562963306 0.7909396028 -0.59769691358 -0.013180434396 0.8283600024 -0.55258494664 