# vtk DataFile Version 5.1
vtk output
ASCII
DATASET POLYDATA
POINTS 1093 double
56.851066589 73.071289062 35.865848541 55.855729832 73.864657591 36.800213072 57.041704072 74.744884973 37.108592654 
58.124860502 73.807544031 36.040722506 54.866196119 74.48589677 37.836601214 56.004501917 75.308109487 38.331481014 
53.884475462 74.875385776 39.010351112 55.0569484 75.619935733 39.625002839 53.030393281 74.989584562 40.321093561 
54.151566287 75.771705443 40.988563815 52.21254559 75.012684325 41.670912851 53.248723738 75.823381981 42.367514546 
51.372547103 74.868065206 43.000068151 52.341177677 75.683793974 43.756228306 50.504042746 74.574169187 44.264372911 
51.406466495 75.380415699 45.078933473 49.579130972 73.984884043 45.400351427 50.45410079 74.85064954 46.302980276 
48.695514954 73.268938972 46.478778953 49.636407099 74.019608208 47.435266986 47.884068619 72.331639263 47.456628665 
48.889277042 73.040661244 48.483452006 47.095762207 71.37752231 48.433316408 48.234920532 71.977059165 49.47988997 
46.518657369 70.269911822 49.399398688 47.676174916 70.839701823 50.444880931 45.941552531 69.162301335 50.365480968 
47.234813089 69.641213281 51.376506449 45.802576573 67.859012473 51.243913476 46.977477782 68.370918667 52.27290126 
45.7055359 66.551451892 52.118965742 46.860841511 67.060655027 53.13312417 45.843563894 65.235394725 52.980422511 
46.92872975 65.701244733 53.931688779 46.191603773 63.859247641 53.632572082 47.06122199 64.344977532 54.713683797 
46.590956869 62.477557561 54.26662393 47.366600891 62.945664094 55.398260372 46.980197302 61.115413233 54.947629112 
47.745101504 61.50980302 56.010957077 47.536471368 59.692117082 55.242367778 48.288079016 60.045808718 56.408132456 
48.121690472 58.22654291 55.290204748 48.926924564 58.539584775 56.595884319 48.763708893 56.800806539 55.139774099 
49.57304139 57.003016042 56.538250944 49.443857108 55.39740027 54.892869831 50.273331467 55.52654729 56.266260976 
50.177685527 54.042052224 54.566717482 51.076502485 54.165440361 55.8487189 50.975004992 52.732319575 54.193809504 
51.911258998 52.885068252 55.358909846 51.810402076 51.425085095 53.899844057 52.80317007 51.751795177 54.796340162 
52.723992724 50.394365283 53.179181712 53.755473654 50.783064734 54.06405893 53.659631009 49.414600388 52.374395784 
54.71711601 49.90983324 53.222529074 54.592609777 48.312902938 51.734880886 55.637917533 49.031879403 52.390667384 
55.536793971 47.338862279 50.966223431 56.550677016 48.300753611 51.432318828 56.501998798 46.604297246 49.95530315 
57.447417068 47.667101236 50.403390271 57.483549423 46.068218638 48.860334878 58.312953518 47.224638418 49.292345985 
58.480277643 45.716440991 47.687325373 59.115633254 46.946466394 48.178139825 59.24060234 45.882496013 46.361051996 
59.720325416 47.019778338 47.056245596 59.85543945 46.331605027 45.022515136 60.331052873 47.554878848 46.091763403 
59.955339625 47.592750238 44.077687813 60.633499343 48.489366148 45.116674073 60.055239799 48.853895449 43.13286049 
60.882308581 49.590400795 44.156477355 60.184899507 50.126604849 42.207416723 61.16734111 50.739148154 43.198535288 
60.333468722 51.400894329 41.287943084 61.442927039 51.936831287 42.260394004 60.587423934 52.679008609 40.396261192 
61.632632728 53.2434855 41.410014213 60.73609585 54.024668552 39.592087611 61.822262606 54.570508474 40.583311597 
60.82672028 55.413264548 38.846034111 61.988845875 55.923212464 39.781188711 60.910475166 56.820745833 38.140656511 
62.11265887 57.310471735 39.020046165 60.886515175 58.31663113 37.635761418 62.083200872 58.768990723 38.403783794 
60.719331625 59.766305377 37.034180743 61.96467556 60.225838381 37.79014761 60.519911329 61.23561013 36.492697801 
61.786878437 61.68861723 37.20800022 60.182987359 62.722084176 36.122308105 61.526294972 63.15885541 36.688572922 
59.774424137 64.214979933 35.82560978 61.201915246 64.638116968 36.237204875 59.45438301 65.700240802 35.395796117 
60.810320879 66.142017859 35.9322084 58.905849532 67.162629878 35.337159511 60.377533167 67.645028903 35.698724622 
58.380858822 68.64704369 35.368878166 59.935709145 69.177928217 35.536799536 57.994960429 70.178017587 35.388043644 
59.485141843 70.760416541 35.536851928 57.456525607 71.639844784 35.587365845 58.91554829 72.299876391 35.644827103 
79.164199829 77.756462097 50.25177002 79.895600273 76.322759289 50.064396985 78.583334041 75.830387263 49.109155576 
77.884573891 77.275309836 49.271746129 80.550524614 74.853653046 49.943385603 79.219563831 74.353461656 48.988354525 
81.047814331 73.31157228 49.959160662 79.762979941 72.834992819 48.948603599 81.49662058 71.755930387 50.014030438 
80.20442357 71.278216464 49.03103672 81.813864693 70.190128888 50.197614563 80.526283966 69.702029975 49.245484535 
81.948988981 68.620539259 50.565965296 80.705359547 68.14375888 49.619884534 81.879963792 67.122456496 51.179595938 
80.736561139 66.617180636 50.193119608 81.823933694 65.640161427 51.831312801 80.756183907 65.111128258 50.815286447 
81.812485772 64.189099044 52.54930077 80.754152897 63.637029852 51.519468559 81.834534275 62.770255522 53.330887883 
80.726288343 62.203925972 52.313196881 81.859900882 61.374296228 54.153209711 80.642764794 60.820701302 53.180083572 
81.552752219 60.160703542 55.181725789 80.390625928 59.545110988 54.19742061 81.204248641 59.02315277 56.278294447 
80.071191275 58.336799522 55.278518056 80.820632669 57.931293458 57.412059053 79.681910407 57.203322355 56.412729762 
80.378737889 56.822008727 58.507401645 79.220134846 56.137274491 57.568774446 79.676056335 55.974633272 59.640475157 
78.593839081 55.272551502 58.79263228 78.72795398 55.373734982 60.809056422 77.773693873 54.701893897 60.05304837 
77.670258494 55.31403337 62.024191479 76.728649103 54.617545391 61.302346509 76.6105055 55.392703647 63.236896756 
75.687360342 54.67998869 62.549028172 75.573502758 55.74900993 64.429888856 74.560970604 55.080479222 63.661361581 
74.542638517 56.258203673 65.559239214 73.499459437 55.596709998 64.771987789 73.518070335 56.924209108 66.623314309 
72.44964097 56.241957184 65.842313758 72.537818068 57.786543163 67.571398587 71.416321336 57.071916806 66.783376941 
71.57578129 58.729575586 68.471806324 70.376945215 57.975013571 67.686784744 70.596368122 59.814884827 69.170068166 
69.32031969 59.014382874 68.432184564 69.607736885 60.86558908 69.905020213 68.272538171 60.130379649 69.109202298 
68.606930425 61.866724121 70.693483317 67.287419224 61.303122902 69.769480414 67.747735499 63.184597466 71.034605582 
66.381743613 62.595959138 70.266997331 66.910367939 64.501171372 71.445999893 65.545483909 63.950903911 70.685927567 
66.082623872 65.767503952 72.026345101 64.746914671 65.291235315 71.118848479 65.435187079 67.226214415 72.126792046 
64.140254136 66.805575312 71.159012339 64.848016776 68.731233861 72.078259112 63.599667965 68.337059595 71.124926127 
64.393428388 70.252798368 71.756156868 63.173202764 69.889965449 70.919721697 64.058905422 71.805236335 71.469149815 
62.870873817 71.477581012 70.712352935 63.877834746 73.397132816 71.226996952 62.638978257 73.087280288 70.497569235 
63.825286861 74.925950668 70.713027029 62.449145359 74.638488197 70.034302205 63.862370605 76.380059866 70.041734248 
62.416552521 76.123632792 69.440649001 64.116354324 77.617698303 69.027188846 62.545657457 77.524075362 68.415959962 
64.443848143 78.776278021 67.948730217 63.024677992 78.766631556 67.283225122 64.831717926 79.869924532 66.81777781 
63.538130799 79.879706232 66.21329336 65.489563313 80.784602627 65.659434038 64.157618913 80.717689537 64.96147531 
66.206359947 81.596998563 64.465752873 64.849163894 81.440467521 63.705250024 67.002022933 82.132118128 63.159565111 
65.638806875 81.963713491 62.379648322 67.798219538 82.719150387 61.877073737 66.471973891 82.413815891 61.058011862 
68.593112817 83.33366303 60.606882055 67.305788891 82.848318094 59.73806999 69.33581222 83.691637194 59.211958724 
68.17924176 83.105942031 58.400229196 70.193465357 83.99872931 57.881038367 69.086601275 83.358393718 57.076666575 
71.191696355 84.243597354 56.628387769 70.048308526 83.571345885 55.789739027 72.287172198 84.123979448 55.447474051 
71.096955791 83.506110751 54.561398232 73.375614737 83.865562686 54.282444316 72.159116808 83.27637399 53.370703525 
74.433647225 83.44206779 53.130585673 73.223917043 82.784817067 52.28945823 75.448780551 82.571789413 52.228701492 
74.269173964 82.032357639 51.347772413 76.440855525 81.557705471 51.469627937 75.287165193 81.090929309 50.537782526 
77.405105706 80.394098763 50.884991277 76.230072248 79.954918372 49.939344915 78.294866023 79.093995396 50.536062851 
77.079727283 78.636934172 49.564268834 56.864550378 76.543786407 38.55618432 58.058035023 76.038893283 37.205066447 
55.853272877 76.835995906 39.967020885 54.906569284 76.997181788 41.39764959 53.96272735 77.0582614 42.865347099 
53.068765375 76.946490703 44.360419969 52.124423091 76.644783009 45.920134147 51.077603208 75.950696029 47.260914317 
50.378351711 74.970327512 48.474611412 49.658831667 73.921354446 49.57655068 49.185020033 72.699539533 50.585795331 
48.664651334 71.504865149 51.559942167 48.309971243 70.221402374 52.460136093 47.9928738 68.94169014 53.370534228 
47.758650582 67.653370722 54.277722993 47.70374371 66.283925457 55.10886589 47.702435422 64.899772352 55.919795049 
47.814721566 63.456270611 56.684700829 48.045475606 61.983051793 57.341909848 48.535597932 60.389386681 57.873113861 
49.168099954 58.669122028 58.237182367 49.82618825 56.89981438 58.125617781 50.605628988 55.311782093 57.777886339 
51.519844376 53.900409848 57.248210412 52.526493824 52.665282155 56.626606688 53.670956686 51.812584434 55.898266174 
54.751602467 51.037664454 55.052266608 55.769986426 50.282189927 54.132964709 56.724025932 49.736502039 53.040660302 
57.593905706 49.131988469 51.985313778 58.419849491 48.632296852 50.822999995 59.183341231 48.276853375 49.653207799 
[...]
POINT_DATA 1093
FIELD FieldData 21
Circ_Strain_Pt 1 1093 double
0.96308218797 0.96196382516 0.98065254116 0.98025176033 0.97052145197 0.98696632228 0.99210656236 0.99757997642 0.99753535791 
0.99851071388 0.99815414954 0.99945175059 0.99785740841 0.99934188816 0.99742531934 0.99835918904 0.99672540375 0.99692755532 
0.9966452246 0.99716628464 0.99764811517 0.9978226862 0.99839014772 0.99810189797 0.99675128965 0.99804146504 0.99511243157 
0.99735645421 0.99451554055 0.99615979916 0.99385642968 0.99619641298 0.99267549205 0.997202165 0.99124959172 0.99694295528 
0.99322890296 0.99704143703 0.99504258619 0.99766798878 0.99396337938 0.99806448964 0.99577792106 0.99841849985 0.99710695253 
0.9985447339 0.99817335605 0.99848329272 0.99831286648 0.99889229042 0.99542283323 0.99582096736 0.9865185706 0.99510370868 
0.9844159008 0.99716378524 0.98491512452 0.9981426354 0.98803289102 0.99709632611 0.99159309492 0.99694181859 0.99598328187 
0.9976108574 0.99693881439 0.99606178241 0.994705161 0.99376328689 0.98429484338 0.990834041 0.97337339633 0.98937124859 
0.98472547963 0.99179867229 0.99607756293 0.99330507083 0.99839779411 0.99650215316 0.99959294779 0.99903050044 0.99850243797 
0.99891209849 0.99854273248 0.99928563488 0.99867411714 0.9993683599 0.99780978898 0.99844286822 0.99852822626 0.99870547145 
0.99952504398 0.99955900699 0.99694070351 0.99954904614 0.99487113304 0.99931084964 0.99382387519 0.99900046619 0.9925101992 
0.998398701 0.9948012471 0.99868714872 0.99673126177 0.99871907498 0.9964841639 0.9983720727 0.98274694234 0.99159859513 
0.99872092957 0.99864596499 0.99887200543 0.99942293909 0.99835689406 0.99832347009 0.99762650126 0.99832841784 0.99637888093 
0.99795450081 0.99629771475 0.99769498497 0.99801864782 0.99859397941 0.99922991385 0.99941818085 0.99976732436 0.99969477395 
0.99873580338 0.99944428873 0.99690500961 0.99872521395 0.99564153264 0.9984213218 0.99841410691 0.99893220155 0.99630950154 
0.99932270161 0.99119658322 0.99688039688 0.98690373223 0.99464362805 0.9886511064 0.99343747885 0.99608280605 0.99548929956 
0.99728570958 0.99681834414 0.99779892278 0.99785685561 0.99786301952 0.99819919313 0.99811557019 0.99822605548 0.99856140904 
0.99766613632 0.99867678701 0.99795064321 0.99865633324 0.99890591426 0.99410576817 0.99869514282 0.98919449637 0.99833638278 
0.98387847746 0.99712923879 0.98359670069 0.99664184512 0.9842373902 0.99506512341 0.98542995612 0.99442858943 0.99193298038 
0.99614597949 0.99866420935 0.99880183776 0.99856159975 0.99899605176 0.99772956803 0.9977360672 0.99596528225 0.99514571588 
0.99499250887 0.99349541427 0.9949816298 0.99308895756 0.99777453408 0.99624100508 0.99847223181 0.99808883169 0.99744907596 
0.99777236664 0.99649213688 0.99728133693 0.99598218697 0.9971585708 0.99703133764 0.99756518301 0.99704890601 0.99747140952 
0.99639969707 0.99707036286 0.99707633295 0.99776534044 0.99717213253 0.99765226465 0.99655762264 0.99614191572 0.99580366786 
0.99650183417 0.99536202344 0.99692474644 0.99547463143 0.99628007531 0.99693411387 0.9958387532 0.99791845844 0.99584869611 
0.99803062476 0.99680120848 0.99834768438 0.99808614423 0.99691330383 0.99169920727 0.99886080397 0.99935500062 0.99955324307 
0.99891544475 0.99711027487 0.99663785596 0.99752776483 0.99879145798 0.99863344058 0.99797382037 0.99788760748 0.99783882668 
0.99839377515 0.99903085198 0.99730688875 0.9977425023 0.99811473533 0.99877706064 0.99962314807 0.99872862038 0.99884401224 
0.99747344888 0.99414502831 0.99306877756 0.99533745098 0.99719132787 0.99730425568 0.9971872589 0.99572038793 0.99258188283 
0.99041559348 0.99020259129 0.99240435915 0.99443511615 0.99692794499 0.99882756715 0.9993009947 0.99906849075 0.99947076806 
0.9994188349 0.9989846889 0.99943612687 0.99874280649 0.99848279614 0.99856132566 0.99882019377 0.99922477577 0.99920779174 
0.99911662737 0.9975422665 0.99506840786 0.98880078043 0.9987470057 0.99821078737 0.99862857553 0.9983227663 0.99822766384 
0.99892743509 0.9995316642 0.99962244897 0.99936422401 0.99924260496 0.9992217543 0.99909136092 0.99846894519 0.9971148877 
0.99587089726 0.99510738466 0.99485628495 0.99464286906 0.9950027045 0.99667099068 0.99833705305 0.99822610041 0.99822144059 
0.99905738744 0.99923925908 0.99901812371 0.99918776684 0.99916457656 0.9978401388 0.99749744676 0.99834365862 0.9990150423 
0.99892669765 0.99843632597 0.99678495948 0.99299948119 0.99260149871 0.99684679805 0.99784854451 0.99725652958 0.99591977736 
0.99524588544 0.9964176103 0.99667152548 0.99609282081 0.99568128545 0.99626124912 0.99747033193 0.99682292708 0.99643006827 
0.99702348198 0.99658712452 0.99607401995 0.99586196814 0.99646375519 0.99735654299 0.99852458684 0.998744125 0.99866511825 
0.99923478165 0.99840695876 0.99693984604 0.99685661428 0.9983010018 0.99908712486 0.99893045152 0.99881533516 0.99914207062 
0.99911854232 0.99676071996 0.99496301901 0.99449684355 0.99674258855 0.9977801651 0.99772169171 0.99925195922 0.99804110639 
0.99699775703 0.9970450831 0.99732721367 0.9985838954 0.99927137595 0.99797025506 0.99765374634 0.9974175163 0.99657531498 
0.99389461957 0.99130467039 0.99548964983 0.99775585678 0.99822579086 0.99879074238 0.99872009172 0.99875444317 0.99935831236 
0.99905717179 0.99915288024 0.99856781331 0.99844129448 0.99873832406 0.9987347805 0.99887388829 0.9989735917 0.99784413282 
0.99626891492 0.99438063622 0.99057693141 0.99459743704 0.98929101039 0.98811905765 0.99889230206 0.99874106106 0.99883749778 
0.9987706118 0.99913057215 0.99972134501 0.99954552042 0.99948177908 0.99957834344 0.99968878275 0.99980444262 0.99923185001 
0.9981340812 0.99708427963 0.99594394182 0.99407810409 0.9921665133 0.99266960372 0.99460422326 0.99633031548 0.99729971638 
0.99724770421 0.99774028541 0.99845626605 0.99914904656 0.99912344093 0.9988111759 0.99858210804 0.99870277479 0.99895864082 
0.99876671399 0.99852433381 0.99846616293 0.99793655743 0.99320098871 0.99054849081 0.9925033264 0.99743444455 0.99769219912 
0.99567893242 0.99458327663 0.99471087229 0.99512534679 0.99602432082 0.99717630999 0.99676155307 0.99668137663 0.99547695018 
0.99530095489 0.99677959503 0.99557167632 0.99473747251 0.99633950733 0.99747233037 0.99830620801 0.99853804709 0.99605618175 
0.99395820113 0.99187847277 0.98909748011 0.99604217259 0.99772480329 0.99820717197 0.99827347505 0.99833043601 0.99862248459 
0.99477484531 0.99633116943 0.9939598257 0.9975760341 0.99798952249 0.99793755295 0.9977607742 0.99789858339 0.99839217094 
0.99706863566 0.9943231487 0.99611756658 0.99777075568 0.99848889638 0.99836215839 0.99818019523 0.9981890762 0.99847921391 
0.998728631 0.9990255845 0.99932068506 0.99908942735 0.99813070862 0.99736662232 0.99805583125 0.99518129249 0.99169856195 
0.99375692916 0.99595423382 0.9977080209 0.99781524036 0.99828622907 0.99898160642 0.99919716312 0.99952101833 0.99937875249 
0.99926242337 0.99912155279 0.99903730337 0.99913780938 0.99913341461 0.99775350213 0.99493028977 0.9914601569 0.99074623112 
0.99073820183 0.99027606793 0.99108688554 0.9905754075 0.99093063516 0.99099641573 0.99261085663 0.9957299064 0.9984968869 
0.99836509559 0.99598648676 0.99534440187 0.99668136681 0.99560552535 0.99429758199 0.99417403498 0.99475592168 0.99536254206 
0.99596919909 0.9971822377 0.99879714591 0.99830598426 0.99510441344 0.99386872184 0.99608791157 0.99525822063 0.99462685697 
0.99435954697 0.99565876504 0.99763604956 0.99798456175 0.99840729384 0.99917253947 0.99942975933 0.99877292178 0.99846208376 
0.99924149856 0.99962979081 0.99961880718 0.99961509251 0.99947681226 0.99883523453 0.99801977463 0.99725726334 0.99663628277 
0.99303842329 0.99032144753 0.99083518094 0.99256951008 0.99599241638 0.99818794585 0.99807334002 0.99837552386 0.9990289171 
0.99916669994 0.9990504552 0.99936731267 0.99969067739 0.9982418482 0.99768127465 0.99819345158 0.99886268569 0.99933548895 
0.99842352481 0.99612299372 0.99083365909 0.98624038626 0.98935834381 0.9931344946 0.9936479053 0.99494400572 0.99693309552 
0.99747148767 0.99976530541 0.99920067058 0.99227899991 0.99398016896 0.99577851271 0.99705123141 0.99814320329 0.99878932161 
0.99814515308 0.99768776376 0.99710257144 0.99699991066 0.99362680569 0.99304561941 0.99507991989 0.99748234189 0.99832682 
0.99855918741 0.99820757432 0.99730835021 0.99663605668 0.99481964054 0.99392115551 0.99597870081 0.99759133003 0.99744739035 
0.99766332938 0.99852601987 0.9986995838 0.99897669203 0.99887523657 0.99886078001 0.99851621226 0.9981117913 0.99813839954 
0.99873573724 0.9987876176 0.99862325264 0.99777123079 0.99793781356 0.99741165349 0.99638167744 0.99548913576 0.99698151469 
0.99787702904 0.99863388124 0.99792264151 0.99771545854 0.99807745444 0.99861207233 0.99896554745 0.9992329009 0.99934587268 
0.99948072563 0.99966304048 0.99982205938 0.9990206576 0.99879559283 0.99768014011 0.99441231308 0.99389027398 0.99378875451 
0.99365985768 0.99330989768 0.99288026885 0.99153787014 0.99352180593 0.99131049012 0.99293944389 0.99721529004 0.99678792115 
0.99721783475 0.9983191772 0.99879633237 0.99835841439 0.99908407023 0.99909278893 0.99692423584 0.99535632322 0.99549691405 
0.99591493526 0.99650000882 0.99779717713 0.99798260636 0.99787222067 0.9979966158 0.99832675222 0.99895543629 0.99927795194 
0.99910273628 0.9985999638 0.99891762473 0.99938803935 0.99964385324 0.99963807069 0.99934068167 0.99919484537 0.99830142901 
0.99692493949 0.99492640543 0.99271730333 0.99123329898 0.99043116227 0.99102343022 0.9935391163 0.99548587957 0.99748927169 
0.99804540624 0.99854758505 0.99862462343 0.99861760048 0.99924247621 0.99955850526 0.99968242774 0.99979000853 0.99957245547 
0.99812179291 0.99812147089 0.99800709732 0.99894063505 0.99843059638 0.99719661216 0.99287821227 0.98887980245 0.9874398049 
0.98724680811 0.98814022684 0.9912772483 0.99594265362 0.99582899633 0.99685100023 0.99559221658 0.99784619951 0.99556785526 
0.99735626219 0.99764183188 0.99794795948 0.99812956552 0.99825600191 0.99779621207 0.99697432742 0.99738028202 0.99860510934 
0.99774649131 0.99798590235 0.99742029332 0.99840602668 0.99903409679 0.9992036106 0.99911834788 0.99841576099 0.99785820715 
0.99763535311 0.99702710733 0.99374166768 0.99035376679 0.99160684303 0.99469137883 0.99729901392 0.99837328567 0.99871840861 
0.99886793517 0.99930014009 0.99926304431 0.99912900324 0.99907865706 0.99906381707 0.99947618523 0.99887933196 0.99891402873 
0.99847465771 0.99777093419 0.99735186293 0.99777016461 0.99724898256 0.99800186845 0.99794395354 0.99786728841 0.99822194411 
0.99843500175 0.99788235808 0.99824957741 0.99934502221 0.99954582005 0.99988371829 0.99968626235 0.9995460263 0.99960204066 
0.99973373648 0.9996747164 0.9977449395 0.99590635746 0.9948606303 0.99512028675 0.99503269298 0.99490966631 0.99493055656 
0.99477559512 0.99541236549 0.99441860311 0.99514155093 0.9930788062 0.9970365962 0.99301051067 0.99931046675 0.99920797237 
0.99915452475 0.99919529569 0.99915584698 0.99728644909 0.99440185383 0.9913655454 0.98978753383 0.98850947608 0.99149141095 
0.99423456807 0.99624443879 0.99473400727 0.99338070087 0.99624632136 0.99711903058 0.99735781686 0.997552793 0.99964874229 
0.99953231903 0.99954027731 0.99920634477 0.99812383161 0.99684221212 0.99604960453 0.99442323867 0.99102291362 0.98977721044 
0.99056104925 0.998827181 0.99863274016 0.99978477759 0.99954020712 0.9996359624 0.99907038499 0.99831759135 0.99856564283 
0.99871074024 0.99930176494 0.99953308386 0.99921887903 0.99816414844 0.99736585888 0.99721389167 0.99585501294 0.99574897641 
0.99651882641 0.99720198742 0.99711462253 0.99709095233 0.99752704659 0.99806483768 0.99880020221 0.99922090451 0.9993104327 
0.99902209825 0.99938672519 0.99961876186 0.99968381897 0.99972085243 0.99936877531 0.99935137553 0.99914495673 0.99870577344 
0.99707899478 0.99257749863 0.99465764703 0.99136267709 0.99340060609 0.99254023956 0.99393856457 0.99624650766 0.99743566211 
0.998342219 0.99916379664 0.99556574489 0.99624927757 0.9963626521 0.9947882794 0.99978526308 0.99974606128 0.99980608295 
0.99980264314 0.99933577821 0.99913331352 0.99897013172 0.99904612981 0.99900357597 0.99862199162 0.99445190767 0.98854896395 
0.98800363928 0.98479533119 0.99318830786 0.99470728867 0.99599200294 0.99753451769 0.99723834944 0.99632221389 0.9969873398 
0.99817934892 0.99884920417 0.99926347469 0.9994891916 0.99963480395 0.99973903617 0.99976983314 0.99986232428 0.99968147395 
0.99917745195 0.99691699214 0.99577987157 0.99576513149 0.99579210672 0.99502806779 0.99603042002 0.99458546604 0.99477796439 
0.99567524418 0.99539118672 0.99516641044 0.99770240748 0.99847286117 0.99963425612 0.99963786604 0.993760213 0.99277408518 
0.99644062848 0.99843956577 0.99787996359 0.99777569593 0.99736455453 0.99823501475 0.99854665238 0.99886623942 0.99898887599 
0.99916948322 0.99903394799 0.99906722413 0.99846678499 0.99719369467 0.99698098667 0.99517870442 0.99611057419 0.9949809128 
0.99514397464 0.99525871889 0.99602170366 0.99677414627 0.99707721662 0.9972783519 0.99641580372 0.99626509957 0.99682494324 
0.99800425615 0.99872256444 0.99902409985 0.99969226128 0.99965007506 0.99951557131 0.99953331767 0.99949684746 0.99923373942 
0.99878086656 0.99784022505 0.996639328 0.99809185235 0.99407164216 0.99507776656 0.99399999268 0.99415177842 0.99420681398 
0.99250989102 0.99000326607 0.98900112006 0.99024458624 0.99614474926 0.99914730926 0.99893633934 0.99870583493 0.99904260592 
0.99823687761 0.99791617249 0.99800046403 0.99821510887 0.99866661822 0.99847057851 0.998613166 0.99776352878 0.99520177562 
0.99360059475 0.99364057449 0.99411138731 0.9942612492 0.99522364006 0.99522567244 0.98667073065 0.98452805744 0.98938862218 
0.99562205195 0.99901169527 0.9996795164 0.99977969653 0.99496727604 0.99490764366 0.990443474 0.98606400703 0.99898358604 
0.99914578045 0.99928519938 0.99954275035 0.99985579079 0.99973151633 0.99983132534 0.99966423205 0.99974777146 0.99978285426 
0.99905432902 0.99056033701 0.99245284172 0.99000390901 0.99057644077 0.99605458836 0.99702482522 0.99190174986 0.99607681102 
0.99280615623 0.99460842555 0.9936838303 0.9981656339 0.99918088645 0.99892123747 0.99918427465 0.99932017333 0.99920454918 
0.99931716328 0.99949189987 0.9878905665 0.9950733919 0.99698624798 0.99655847876 0.99643193586 0.99945399397 0.99932497711 
0.99919618395 0.999202748 0.9994498314 0.9997664279 0.99967221568 0.99969099027 0.99966934895 0.99954532989 0.99917099001 
0.99873868187 0.99838797576 0.99653987817 0.99428769134 0.99487751904 0.99846266999 0.99839525884 0.99774031218 0.99458848361 
0.99495988642 0.99491176257 0.99560004067 0.99657376193 0.99665226955 0.99675723526 0.99676646983 0.99699765724 0.99736444303 
0.99790069679 0.99884585018 0.99882272731 0.99891908828 0.99958075033 0.99968939811 0.99963949892 0.99543669048 0.99946956244 
0.99904104634 0.99865859673 0.99835385249 0.99780149219 0.99449012346 0.98865704373 0.98558137667 0.98425077011 0.98963416989 
0.99756251724 0.99573081948 0.99470022917 0.99653831077 0.99791032692 0.99831887526 0.99975680076 0.99045248035 0.99042629353 
0.99021447399 0.98938428128 0.99111524794 0.99961059479 0.999462309 0.99567601552 0.99676987373 0.99097019923 0.98948608771 
0.98705967941 0.98887586342 0.99337165273 0.98789479063 0.99116710758 0.98815360544 0.98349927648 0.98684721191 0.99554940844 
0.99823951662 0.99757098428 0.99964610093 0.99253798493 
Circumferential 3 1093 double
0.61713913464 -0.78040974913 -0.10049831821 0.6427151067 -0.53664606528 -0.44369955632 0.66367489813 -0.41003552665 -0.60141528875 
0.71326722553 -0.58568866886 -0.37479707652 0.65557426454 -0.3307267221 -0.66792602162 0.62359364891 -0.2580934524 -0.73254959121 
0.6513118571 -0.1757599476 -0.73196815883 0.60182772489 -0.13691276993 -0.78512208613 0.61074980497 -0.067090870077 -0.78256054453 
0.59155928232 -0.038592943854 -0.80198911338 0.55930665971 0.026018746674 -0.82812643174 0.58082779822 0.04693044123 -0.81237045777 
0.50457358403 0.086950444447 -0.85591708415 0.54885456851 0.099800632771 -0.82843201174 0.43759801658 0.14855361245 -0.88280802086 
0.48236614071 0.15425905384 -0.85835932763 0.34639700715 0.21148548572 -0.90791860023 0.38962110864 0.19670326648 -0.89822049073 
0.26210492203 0.27931289936 -0.91953253711 0.27915669441 0.25893805871 -0.91497834713 0.18988707731 0.35569590414 -0.9075593425 
0.16883566135 0.32176754373 -0.92418371195 0.1186200959 0.43460885116 -0.89076293517 0.078304706771 0.39713674409 -0.90846062284 
0.056031787794 0.53661296373 -0.829944336 0.0064046483726 0.48459962044 -0.86882274036 -0.0065565203139 0.63861707631 -0.76912573683 
-0.053985447292 0.56051978016 -0.82262894161 -0.073706258883 0.69023968791 -0.71374513076 -0.10503353696 0.63195373359 -0.76306290664 
-0.13566099704 0.74590018497 -0.64859749988 -0.14115311332 0.69523741664 -0.70136365548 -0.16247747352 0.83366256577 -0.51770799637 
-0.17331788901 0.75357116186 -0.63266926907 -0.20174938755 0.87571354784 -0.43649717097 -0.18585635815 0.82668904472 -0.52605213331 
-0.2051503411 0.89505045729 -0.39462123445 -0.18768226128 0.89064051491 -0.40793789972 -0.22003404191 0.92381837485 -0.29540954313 
-0.22979221501 0.93450695715 -0.2581129541 -0.32919830536 0.93330330446 -0.10630586678 -0.3247197636 0.93757737864 -0.10039215623 
-0.36636406025 0.92952656258 0.017438319498 -0.34358751511 0.93552500828 0.04428607942 -0.40350239074 0.90318998556 0.12833999562 
-0.38667992623 0.90269840935 0.17492593658 -0.44164501722 0.87747570553 0.1859420782 -0.43007437839 0.85411721267 0.28784046045 
-0.44103524046 0.86379738617 0.23796908583 -0.46442848591 0.80317769974 0.36935263726 -0.44955010665 0.83858367578 0.30057621393 
-0.50080951795 0.73885082686 0.44505179329 -0.54182444722 0.77628333164 0.31649607827 -0.5359945294 0.68326698206 0.48736921629 
-0.55300472088 0.71120463388 0.41883037283 -0.57461360857 0.61687975455 0.53299779645 -0.55742660815 0.64041072022 0.52408779705 
-0.58546512717 0.57005064619 0.57236861384 -0.63170675418 0.54916593841 0.53707940398 -0.61889696766 0.5132660694 0.5917088556 
-0.67167220023 0.46810956973 0.5700001816 -0.62795971717 0.4457248303 0.62929950664 -0.6472655574 0.40616598468 0.64030675446 
-0.63394029831 0.33872895412 0.68901868141 -0.62385088752 0.28126719834 0.71123838463 -0.61427783693 0.21185808796 0.74731555614 
-0.60135729608 0.097912504922 0.7827504004 -0.57361987865 0.069796333937 0.807383723 -0.26024186754 -0.15559054983 0.84631486847 
-0.44470664607 -0.072104042153 0.86939327286 0.14753210205 -0.41783742479 0.89431793369 -0.25924588179 -0.22185518321 0.93486654081 
0.10178920185 -0.52764385865 0.83040362195 -0.13123803199 -0.40540963988 0.88550921885 0.056046301663 -0.63745029252 0.76648931021 
-0.034762501091 -0.56604053723 0.81761301743 0.021159055326 -0.69051733806 0.71996163147 -0.015062897411 -0.6441637574 0.76163001364 
-0.010538803731 -0.73705156051 0.67529925393 -0.0072043287516 -0.70561514393 0.70834958207 -0.027664282249 -0.77267108181 0.6331025229 
-0.0057663677824 -0.74614944479 0.66446309184 0.011685044013 -0.80002428041 0.59743966664 0.0017736278704 -0.78484212646 0.61886579212 
0.063157583749 -0.82803009459 0.55569491146 0.019853440501 -0.81405241812 0.57953024668 0.076155869316 -0.86709832269 0.49096614374 
0.05728555169 -0.84837353956 0.52585528253 0.13102744563 -0.90245491998 0.40960376701 0.12787786363 -0.88216091527 0.45192429044 
0.16620997605 -0.89743184083 0.40836086649 0.17486921906 -0.88387804135 0.43299513564 0.2256308388 -0.90699995273 0.35065947217 
0.22494287021 -0.888098504 0.39910179752 0.31217677008 -0.90109760946 0.29176809957 0.29201185487 -0.88701437851 0.35117724441 
0.37342535312 -0.89456086825 0.24055674845 0.37991194522 -0.87667753151 0.29262307253 0.32159450967 -0.92852520421 0.18008457184 
0.46815599326 -0.8472390824 0.24319855552 0.46166644392 -0.86511989853 0.12225654502 0.53587098297 -0.82604771288 0.15721298349 
0.57799170738 -0.81243051517 0.068289086395 0.60244021613 -0.79429952836 0.055378398677 0.57090388675 -0.82014793293 0.019570305829 