# vtk DataFile Version 5.1
vtk output
ASCII
DATASET POLYDATA
POINTS 900 float
63.927 75.8651 29.7346 62.6108 75.6013 29.8241 61.3112 75.2117 30.0426 
60.0676 74.7123 30.3792 58.991 74.2036 30.7475 58.0649 73.6407 31.1904 
57.1845 73.06 31.6575 56.3293 72.4829 32.1243 55.5318 71.8651 32.6399 
54.8383 71.2555 33.1611 54.1179 70.6117 33.7131 53.2853 70.0363 34.1812 
52.7627 69.8296 34.3194 77.3675 76.3237 31.0718 76.9015 76.2992 31.0341 
75.8721 76.2258 30.9703 74.7172 76.2501 30.7912 73.5289 76.2308 30.6515 
72.3296 76.2388 30.483 71.1955 76.2632 30.3066 70.045 76.3013 30.1142 
68.8891 76.3269 29.9337 67.703 76.2832 29.819 66.4412 76.214 29.7197 
65.2046 76.0967 29.6724 64.041 74.102 27.3721 62.7201 73.7604 27.5022 
61.4203 73.3402 27.749 60.1174 72.8585 28.0818 58.9203 72.4032 28.4055 
57.7547 71.8699 28.8478 56.9632 71.3315 29.397 56.3266 70.7567 30.0389 
55.5842 70.1773 30.6591 54.8718 69.6132 31.2657 54.2097 69.0308 31.9115 
53.4997 68.5028 32.4677 52.9893 68.2886 32.6341 77.349 75.362 29.1416 
77.021 75.2748 29.1772 76.1303 75.1463 29.1211 74.9707 75.1195 28.8498 
73.853 75.1014 28.5773 72.7268 75.0883 28.2955 71.5817 75.0843 27.9958 
70.4186 74.9826 27.8293 69.2358 74.8731 27.6685 67.9154 74.7717 27.4595 
66.6845 74.6067 27.3644 65.3437 74.3409 27.3822 64.3276 71.6265 25.7885 
63.0729 71.3181 25.8203 61.6817 70.8909 26.033 60.4276 70.4361 26.3699 
59.1913 69.9666 26.7462 58.0445 69.4972 27.1656 57.2357 69.0068 27.7934 
56.6258 68.5118 28.5274 55.9734 68.0173 29.2398 55.2602 67.5147 29.9393 
54.5793 67.0154 30.6479 53.8375 66.5381 31.2809 53.3547 66.3225 31.4948 
77.5184 73.9768 27.3121 77.2727 73.9146 27.3223 76.4907 73.7406 27.3042 
75.3864 73.6341 26.9885 74.2442 73.4797 26.7544 73.0746 73.3058 26.5474 
71.8856 73.1379 26.3185 70.5782 72.8934 26.1915 69.3581 72.6395 26.1267 
68.0967 72.3944 26.0233 66.8467 72.1433 25.9379 65.5693 71.8786 25.8678 
64.6772 68.7816 24.9978 63.4159 68.412 25.0896 62.0199 67.957 25.3537 
60.7841 67.5232 25.6969 59.6741 67.0949 26.1424 58.7073 66.669 26.717 
57.84 66.2459 27.3778 57.1089 65.8607 28.0358 56.39 65.4589 28.7643 
55.7141 65.0662 29.5021 54.9794 64.6581 30.2377 54.2307 64.2876 30.8268 
53.7706 64.1066 31.0234 77.8751 72.1263 25.8871 77.5554 72.0375 25.8932 
76.7451 71.805 25.9347 75.595 71.5274 25.8081 74.3224 71.1856 25.7906 
73.087 70.862 25.7444 71.8291 70.5203 25.7407 70.6098 70.2179 25.6352 
69.4335 69.9315 25.5146 68.268 69.6589 25.3554 67.0739 69.3721 25.2191 
65.8759 69.0875 25.0711 65.5171 65.9635 25.1123 64.2002 65.5438 25.2471 
62.8506 65.1042 25.4816 61.5518 64.672 25.7983 60.5053 64.3008 26.2848 
59.5365 63.9456 26.8514 58.6695 63.615 27.4858 57.8388 63.2933 28.1436 
57.056 62.9821 28.845 56.2932 62.6744 29.5721 55.5687 62.3812 30.2725 
54.7758 62.0755 30.8874 54.27 61.9032 31.0502 78.4429 69.934 25.2806 
78.1787 69.8473 25.3333 77.3774 69.5894 25.4403 76.2368 69.235 25.4663 
74.9939 68.848 25.5019 73.7538 68.4629 25.5284 72.5496 68.0941 25.5014 
71.3835 67.7429 25.4159 70.2365 67.4031 25.275 69.122 67.0718 25.1492 
67.9504 66.7216 25.0364 66.7885 66.3677 24.9913 66.3561 63.3067 25.4919 
65.0331 62.8685 25.7006 63.7733 62.4602 26.0087 62.6312 62.1037 26.456 
61.6441 61.8044 26.9508 60.6831 61.5211 27.5323 59.7334 61.2417 28.1142 
58.8109 60.9749 28.7357 57.9586 60.7327 29.3633 57.1591 60.5098 30.0031 
56.272 60.2575 30.6545 55.3897 59.995 31.1588 54.9021 59.8422 31.3419 
79.0679 67.6461 25.0781 78.7514 67.5408 25.1216 78.0452 67.3107 25.2805 
76.7816 66.8942 25.5032 75.5556 66.479 25.5839 74.416 66.0876 25.5923 
73.2727 65.6937 25.5846 72.16 65.3033 25.4914 71.1014 64.9286 25.3618 
69.9494 64.5242 25.2622 68.8434 64.1395 25.2108 67.6654 63.7413 25.2978 
67.0585 60.8546 26.6073 65.7832 60.4396 26.8704 64.5652 60.0717 27.2262 
63.4943 59.7775 27.6472 62.4865 59.541 28.1922 61.4679 59.2957 28.7198 
60.5049 59.0655 29.225 59.5526 58.8455 29.7525 58.6003 58.6299 30.2964 
57.6646 58.4224 30.8472 56.6943 58.19 31.3544 55.7401 57.9297 31.7363 
55.2744 57.7831 31.8503 79.7025 65.2964 25.2066 79.3949 65.1806 25.2121 
78.6391 64.9314 25.3562 77.4971 64.5511 25.5597 76.316 64.1468 25.7296 
75.0922 63.7401 25.9505 73.9087 63.3284 26.0966 72.7583 62.9039 26.149 
71.7566 62.5151 26.1242 70.6508 62.0896 26.11 69.5164 61.6909 26.2351 
68.2853 61.2707 26.4167 67.721 58.6786 27.9805 66.4778 58.3034 28.2922 
65.331 57.9945 28.6565 64.206 57.6994 29.0303 63.1789 57.4688 29.4518 
62.13 57.2356 29.887 61.1224 57.0449 30.3739 60.1233 56.845 30.8342 
59.1417 56.6692 31.329 58.1173 56.4539 31.7797 57.1143 56.2521 32.2397 
56.1927 56.0165 32.5584 55.7226 55.8809 32.6894 80.3259 62.9923 25.8726 
79.9781 62.8913 25.968 79.2405 62.6793 26.1747 78.054 62.3125 26.4542 
76.9004 61.9559 26.7259 75.6945 61.569 26.981 74.5559 61.1623 27.1363 
73.4159 60.7341 27.2482 72.2697 60.2846 27.3216 71.1809 59.8725 27.4223 
70.0431 59.4785 27.603 68.8582 59.0772 27.8098 68.5211 56.903 29.6324 
67.3494 56.5876 29.9557 66.1326 56.2355 30.2583 64.9601 55.9165 30.5774 
63.8452 55.6177 30.8869 62.7082 55.3508 31.2534 61.6847 55.1672 31.6599 
60.7383 55.048 32.104 59.7568 54.9044 32.5376 58.7098 54.7017 32.9333 
57.6287 54.467 33.3078 56.7261 54.2283 33.5625 56.2196 54.0679 33.6699 
80.9963 61.1231 27.353 80.6508 61.0135 27.4259 79.8952 60.7632 27.5711 
78.8222 60.4325 27.8107 77.6968 60.0769 28.0503 76.5231 59.7334 28.337 
75.3527 59.3364 28.5494 74.2352 58.886 28.6559 73.2067 58.4504 28.7254 
72.0842 58.0343 28.8815 70.8667 57.6216 29.1027 69.6949 57.2439 29.3421 
69.0649 55.4028 31.5296 67.923 55.0714 31.794 66.6911 54.6835 32.0511 
65.5045 54.3346 32.3217 64.313 53.9944 32.6028 63.2115 53.7291 32.9083 
62.1516 53.5266 33.2511 61.0932 53.3425 33.6101 60.0548 53.1538 33.955 
59.0054 52.9661 34.3062 57.952 52.7439 34.6275 57.1241 52.546 34.8585 
56.68 52.4317 34.9749 81.6234 59.6554 29.1844 81.2025 59.4992 29.2504 
80.3387 59.1716 29.3791 79.3212 58.8073 29.5509 78.2088 58.4576 29.7836 
77.1484 58.1056 29.9882 76.0002 57.6905 30.1783 74.853 57.2322 30.3278 
73.7033 56.807 30.5092 72.546 56.4387 30.7472 71.3858 56.0923 31.0069 
70.277 55.7493 31.2439 70.0467 54.1173 33.2901 68.9101 53.8116 33.556 
67.7294 53.468 33.8157 66.6025 53.1188 34.0501 65.379 52.7527 34.3128 
64.2408 52.45 34.5811 63.1069 52.1367 34.8411 61.9757 51.8889 35.1414 
60.9443 51.7277 35.456 59.7987 51.4494 35.7427 58.7841 51.2972 36.0563 
57.9583 51.1409 36.291 57.5446 51.0041 36.3716 82.5296 58.4291 30.9738 
82.1837 58.2634 31.0088 81.4515 57.9914 31.1326 80.3036 57.5798 31.336 
79.2048 57.1726 31.5225 78.076 56.7703 31.7241 76.9153 56.3512 31.928 
75.7574 55.9075 32.1152 74.6927 55.5149 32.2971 73.5675 55.1723 32.535 
72.3929 54.8246 32.7896 71.2214 54.4627 33.034 70.9965 52.5946 35.0363 
69.8069 52.2164 35.275 68.6416 51.9479 35.5499 67.4971 51.7207 35.8346 
66.3953 51.5172 36.1149 65.2978 51.3452 36.4065 64.2117 51.1607 36.6892 
63.0859 50.9612 36.979 61.9669 50.7116 37.2463 60.8085 50.4156 37.5078 
59.6347 50.0881 37.7618 58.8465 49.8015 37.9054 58.4271 49.654 37.9838 
83.2999 57.4332 32.9419 82.9314 57.2646 32.9951 82.1648 56.9431 33.1175 
81.164 56.4925 33.2649 80.081 56.0367 33.4372 78.9925 55.5663 33.6054 
77.9055 55.1323 33.7878 76.8069 54.6625 33.9596 75.6591 54.2309 34.163 
74.5029 53.8353 34.3836 73.303 53.4111 34.6071 72.1952 53.0239 34.8153 
71.7605 51.2078 37.1535 70.5739 50.7703 37.3766 69.3697 50.3997 37.6184 
68.2385 50.2595 37.8893 67.1609 50.2307 38.1694 66.0563 50.1508 38.4459 
64.9868 50.0779 38.7145 63.874 49.9958 38.9927 62.7048 49.8379 39.27 
61.5202 49.5801 39.5304 60.3952 49.2733 39.7645 59.5358 49.003 39.9359 
59.0943 48.8339 40.0176 83.7612 56.7226 35.1267 83.3126 56.5104 35.2012 
82.4476 56.1599 35.3572 81.492 55.5943 35.492 80.5419 55.016 35.6226 
79.7067 54.402 35.7153 78.7512 53.8387 35.8505 77.5683 53.3719 36.0664 
76.4781 52.9392 36.2649 75.2818 52.5214 36.4947 74.0338 52.1121 36.74 
72.8385 51.676 36.9657 72.4608 49.8954 39.6158 71.2252 49.5709 39.8615 
70.0198 49.3463 40.1044 68.903 49.2343 40.3329 67.8026 49.2205 40.5615 
66.6764 49.2135 40.7956 65.5728 49.1511 41.0231 64.4733 49.143 41.2516 
63.4058 49.1519 41.4741 62.2409 48.9742 41.7103 61.0885 48.7397 41.9419 
60.3261 48.5454 42.0937 59.9403 48.4595 42.171 83.932 55.8058 37.437 
83.4512 55.5601 37.5283 82.5108 55.0225 37.7051 81.7561 54.3577 37.8387 
81.0845 53.6718 37.9543 80.3218 53.0104 38.0897 79.4713 52.4266 38.2461 
78.4658 51.9019 38.4368 77.2602 51.4409 38.6715 76.1152 51.0942 38.8975 
74.8815 50.6895 39.14 73.6478 50.2848 39.3825 73.4744 49.1209 42.3909 
72.1726 48.7253 42.6426 70.8847 48.4292 42.8788 69.7857 48.4259 43.047 
68.6303 48.4406 43.2214 67.511 48.4324 43.3934 66.389 48.4016 43.5687 
65.3154 48.4698 43.7235 64.2186 48.4856 43.8888 62.9883 48.3341 44.0969 
61.8676 48.2334 44.2814 61.1492 48.0886 44.4104 60.8387 47.9973 44.47 
84.6516 55.7037 39.8037 84.2452 55.4644 39.8978 83.4422 54.9084 40.0948 
82.7004 54.2153 40.3008 81.8288 53.5705 40.5201 81.0202 52.9154 40.7312 
80.1745 52.2303 40.952 79.1245 51.6689 41.1874 78.1008 51.1256 41.4164 
76.9822 50.6066 41.6566 75.7891 50.0707 41.9105 74.6915 49.6023 42.1407 
74.0079 49.2893 45.3859 72.7568 48.8728 45.6336 71.5965 48.6317 45.8188 
70.5225 48.5758 45.9387 69.406 48.5145 46.0642 68.3647 48.4918 46.1708 
67.2772 48.4759 46.2797 66.2325 48.4807 46.378 65.1782 48.4666 46.4832 
64.113 48.3778 46.6123 62.9726 48.2493 46.7609 62.0968 48.1271 46.8822 
61.6948 48.0924 46.9313 84.5768 55.8022 42.3712 84.174 55.5789 42.4784 
83.3108 55.0688 42.718 82.4594 54.4841 42.9793 81.5236 53.8866 43.2526 
80.5031 53.3633 43.5112 79.4874 52.8357 43.7707 78.3932 52.2952 44.0416 
77.4519 51.7552 44.2978 76.6257 51.1058 44.5766 75.8626 50.4022 44.8661 
75.0712 49.8219 45.1203 74.2325 50.5761 48.1318 73.1102 50.1381 48.3872 
71.9135 49.7514 48.6195 70.7414 49.5448 48.7612 69.6972 49.4469 48.8446 
68.6432 49.4861 48.86 67.6521 49.5461 48.8629 66.6462 49.6473 48.8458 
65.6717 49.7265 48.8387 64.5729 49.6124 48.9319 63.5051 49.3402 49.1029 
[...]
CELL_DATA 1728
VECTORS ScalarGradient double
0.005664064774 0.0007855783124 -0.00084731749441 -0.0053612482554 -0.0012888991654 -0.00014309057324 -0.00056537347679 -0.0012298878538 -0.0025742289377 
0.00028809454639 -0.0010432484274 -0.0026841485639 0.00048648709182 -0.00095903620914 -0.0026295222761 0.0021830960659 -0.00018494328732 -0.0030911756307 
0.00069094406693 -0.0005697946613 -0.0018904117915 0.00015426621372 -0.00072853417198 -0.0017736038506 -1.9099152846e-05 -0.00088749922955 -0.0017893074537 
0.0035379831446 0.0014540056681 -0.0031388037541 -0.0017810606522 -0.00045933427474 0.0012336315166 -0.0021342580972 -0.00085493613383 0.0014483835202 
0.0010060338772 0.0021997756086 0.0018010202472 -0.0031256472804 -0.0010108739989 0.0033700968324 0.0026928264397 0.0017612760564 -0.0017137587882 
-0.00013845191333 -0.00051369197682 -0.0005494769458 0.00013100073448 -0.00020831848905 -0.00053847459121 0.0012992963691 0.0009769214184 -0.0012154694814 
0.0012053046044 0.00078533025412 -0.00095088079131 -0.00048923693003 -0.00080136511613 -0.00013379182977 0.0026221478938 0.0038146869465 -0.00015880005102 
0.0073140033872 0.0068740543099 -0.0017135443933 -0.00080344700443 0.0038157788815 0.0056997983968 -7.2941049115 -3.5539035624 1.8758557398 
-7.3757385728 -3.1555441145 1.6312238245 15.759908023 0.67823136632 1.1169918357 17.835456332 1.5619311966 -0.17721269483 
-0.0040010787546 0.00068757864904 0.0016482771858 -0.014845907619 -0.003039741954 -0.0034358387541 0.010755471844 -0.0033005042151 -0.0022668061279 
0.0013405061763 0.00068616718096 0.00096457065299 0.0006000352483 0.00067119950863 0.00093588329004 -0.0036542844524 -0.00066253611187 -0.0014600365916 
0.0020684437094 -0.00078723411946 -0.0010359821376 -0.007048615674 0.0009921802274 0.0029034634878 0.0011025766852 0.001530240142 0.0031005869091 
-0.0011686521152 0.00094957562122 0.0019084679462 -0.00087293246247 0.00094563549386 0.0019327795468 0.011113283179 -0.0015291456271 -0.002095211114 
-0.0086133229368 -0.0016920649099 -0.0032404068428 -0.0041961797855 -9.9747938459e-05 -0.0011953839427 0.0027588675934 -0.0001843028644 -0.0005177946753 
0.0031192674173 -0.00026442457544 -0.00062292158458 0.0011936475127 -0.00032732009038 -0.00073387662992 -0.00056355192962 -0.00064764174095 -0.0015647175691 
-0.0052029638407 -0.0010409707467 -0.0015426880235 -0.0012249198886 -0.0013841570565 -0.0031652446046 -0.00051851233237 -0.0013598455881 -0.0031650270153 
-0.010378999589 -0.0034454375817 -0.0021236598451 0.0029744414634 -0.0013355748898 -0.0030537734638 -0.0054138151278 -0.00068391958858 0.00086668489611 
0.00054998821907 0.00044525188745 0.00025217396316 0.0019440134584 0.0013599136211 0.00050280911179 0.0023668771028 0.001636142441 0.00029753308505 
0.0023431236136 0.0016769251867 0.00026305262594 9.6678458569e-05 0.0008191764378 0.00090647857248 -0.0055194494779 -0.0029092359872 0.00041466612788 
-0.0094164749416 -0.0052405486106 0.0023245187694 0.0032766866362 -0.0027376200225 -0.0090113215758 0.00037379668521 -0.0042871635761 -0.0074555896842 
0.0030695650233 -0.0017408215745 -0.0079871067786 0.0150083918 0.01116026899 -0.019020347624 -0.0032454775352 0.00080319103911 0.0053932555236 
0.00016894231863 0.0031013308462 0.0034864179473 -0.0062907407999 -0.0051212702019 0.005016434621 -0.0036437782275 -0.0028458055051 0.0031475980168 
0.0013426404297 -0.00057339595698 -0.0029710713102 0.0026059262194 0.00058206685307 -0.0039499407454 0.0093580406799 0.011108157019 -0.0061645785506 
0.025512194721 0.022990710817 -0.015768282362 0.0062969807272 0.015286380799 0.0068178682462 -7.3710678035 -3.0414329609 1.8195209005 
-7.1022721554 -3.2348450164 2.0650949103 25.045547453 6.0262484071 -4.0014231546 15.79880674 0.52876594195 0.73343930501 
-0.015824554653 0.0026374785049 0.0058174630757 -0.014686911306 0.0024227707766 0.0066602621697 -0.010374175477 0.0045584317798 0.0060157769058 
0.010433561213 -0.0010768052253 0.00011095991665 -0.0036061192697 -0.00087432716894 -0.0018406840692 0.0018669008663 0.00063714881677 0.00160686804 
-0.0019951779944 0.00073801212625 0.00094847833138 0.0019220012102 -0.00013213582829 3.6856329209e-05 -0.0008248573475 -0.00014753963852 -0.00045382944374 
-0.011716678108 -0.0022265554209 -0.0075323750649 0.013498355285 -0.00165922627 -0.0036075930711 -0.00056821391012 3.2479597987e-05 -7.0442773226e-05 
-0.004269561557 7.5839640849e-05 -0.00070065542329 0.0032426964736 0.0022024429316 0.00340103464 -0.013522223403 0.001250117442 0.001446066233 
0.0030695370591 -0.0020124405568 -0.0030328621551 -0.00034866644219 -0.0021048394184 -0.0032812793911 0.00011450835823 -0.0020658270335 -0.0030040780731 
0.011661534402 0.00010417267283 -0.0032920274979 -0.0056860308919 0.0021220323014 0.0032360172459 0.005365834409 0.0034375445673 0.0028989656097 
-0.0068409084872 0.00033653468567 0.00065350017637 -0.0029362335659 0.00062550488161 0.00090855546779 0.0029203936302 -0.00034542398073 -0.001003363942 
0.0022005140245 -0.00037847783816 -0.0011063326705 0.0010041835568 -0.0012684372261 -0.0011983329676 0.0048355947578 4.0476338221e-06 -0.0024308579026 
0.0025397246046 0.00017570946737 -0.001139772893 -0.0054602952815 -0.0025042852167 0.0012029056402 -0.00061762134184 0.0012821482075 0.0011297456239 
-0.022504335379 -0.0069360967121 0.0096228944287 -0.0088260157289 -0.0074643586044 0.0011990413417 0.0044170017674 -0.001133205594 -0.0054493755339 
0.0084020038314 0.003562060644 -0.0073781579999 0.015095654158 0.011907653942 -0.01833929272 0.016062768811 0.011567141195 -0.0176104167 
-0.0060564660766 -0.0061546656268 0.00433146062 -0.00043909692759 0.0013937306316 0.0011786777754 -0.0042651623692 -0.0016498217161 0.0047614423833 
-0.0039522618075 -0.0014936280196 0.004042786903 0.0090653777203 0.0088464207428 -0.0085041658163 0.0066756110737 0.0050743940759 -0.0068773990895 
0.019852064143 0.013586927956 -0.016600143288 0.026413646856 0.014213330821 -0.022949454753 -7.1761747684 -2.7363660477 2.4801651675 
-7.0280817346 -3.1498034109 3.1078363461 36.588946978 8.0591509785 -3.0678961389 24.947110806 7.2436892828 -1.930912122 
-0.01314657258 -0.0038446597017 -0.0034391487842 0.027611912064 0.013966897585 0.010249865137 -0.046183710366 0.0064963914249 0.0013903210455 
-0.0075308424531 -0.0029476632356 -0.0053949467552 0.0030689183965 -0.0028687877034 -0.0030906365567 0.010847001257 0.00058772635115 0.0012242088537 
0.0028398159828 6.8430941965e-07 2.8019796374e-05 -0.0019607207868 0.0012222915521 0.0007882989706 -0.013229648336 0.0015639162392 -0.0018019683233 
-0.01481244683 -0.00023163409697 -0.0012286044876 0.0054114124051 0.0012434722771 0.00072282388442 0.012993745349 -0.001471021857 -0.00019824259139 
0.0041825160981 -0.0015485114151 -0.00095819574681 0.0070050814448 7.8325621605e-05 -0.00057326454043 -0.002905884863 -0.00065351063269 -0.00029932118785 
-0.013582915543 0.0035951774405 0.00069192403615 -0.001052913196 0.0036390288157 0.0022013686348 -0.0014375114671 0.0034738535512 0.002068866873 
0.00054831160538 0.0036184924934 0.0020447656548 0.011550593088 0.00081471180781 -0.0010431680945 -0.01068731538 -0.0018528669523 -1.8176268968e-05 
-0.0043384632408 -0.001135428943 -0.00027326815804 0.0010435294648 -0.00047279847327 -0.00027815266716 -0.0029216498024 0.0005107515253 0.00037069297379 
0.00051267862658 0.00098236869017 0.00010738099216 0.0012775942436 0.00156219447 -1.0081003776e-05 -0.0015727474981 0.0010586479291 0.00074566900944 
0.0051712904424 -0.00048123187909 -0.001836343645 2.2602038535e-06 -0.0014748265392 -0.00027394546018 -0.0020370360575 -0.0031375793724 0.00050233035981 
0.0054099951327 -0.0010303565002 -0.0035655588229 -0.026419073343 0.0035161474138 0.010615448893 0.00505739838 0.013232642675 -0.0041323371773 
-0.002226955146 0.0060111932461 0.0015925813558 -0.00078998637932 0.0065018225176 0.00042267296072 0.017928159698 0.0040761275467 -0.0212668219 
0.00070716458476 -0.0028702454045 -0.000731572826 0.0010951432447 -0.0024224501848 -0.001167724919 0.0040339936245 -0.0013372862364 -0.004430949278 
-0.0052718060232 0.00033266796768 0.0051594091547 0.0067602496983 0.0047402225096 -0.0070315655006 0.0036670095899 0.00096639575909 -0.0036751706434 
0.016727195304 0.004856190556 -0.013290625509 0.023145460847 0.0035766818531 -0.020288718512 -7.4025305985 -1.9900770757 3.431143457 
-8.4507026548 -2.5318508001 3.7071175383 24.4087891 6.0798898131 -0.97899583019 36.715161043 7.6126577256 -2.7534751527 
0.03173900343 -0.002826779091 -0.0065820564202 0.044094089781 0.0053815705352 -0.0071672025149 -0.026419971048 -0.0067266280514 -0.003151718474 
-0.043199935422 0.0033281604153 -0.0079800234699 0.010255853399 0.0025867542358 0.0027895019085 0.0049091008821 0.00039348744199 -0.00031780825981 
0.00025873336837 9.2950954729e-05 2.0192502467e-05 0.0030086573931 -0.0011211716117 1.6197070522e-05 -0.014578465269 -0.00045665849658 -0.0022789726699 
-0.0014142682224 0.0055849064929 0.0013208222901 -0.003508137863 0.0056709113427 0.0011358980254 0.0052844753535 0.0019291536723 0.00070952308812 
0.006550873495 0.0019920387301 0.00047893609142 0.00069356854177 -0.0009033303264 -0.00017261500539 -0.0013199868786 -0.0009258264945 -0.00032115461094 
-0.0029728195112 -0.00035554416374 -0.00018898452564 -0.00054704788988 -0.00023324651784 -6.7619303068e-05 0.0011585864659 0.00067140988654 0.00023590427732 
-0.0039751123782 0.00035031625086 -0.00014876992891 0.0017202065361 -0.0013868974481 -0.00040249116768 -0.006244484764 -0.0021877892669 -0.00066236133597 
0.001315524382 0.0037323573794 -0.00033419324743 -0.0022544825688 0.0026823705238 9.7748198546e-06 0.00023834786845 0.0023011271398 -0.00017194584719 
0.00090975977392 0.0024730025915 -0.00038522149642 -0.00010147210594 0.0015476542206 -0.0001201134382 -0.0068642867012 -0.00035019653948 0.0014698093881 
-0.00083579246492 -0.001362168982 0.00033988147045 -0.0023531441848 -0.0017453644285 0.0010534148541 0.0029458399699 0.0027468880008 -0.0016607240607 
-0.0017036632367 0.001477284517 0.00057010739444 0.0052578152817 0.00042762374877 -0.0027410288648 0.0001100278743 -0.00099579292586 0.00017325765346 
0.0031064102172 0.0018083436909 -0.0024242414466 -0.0016582261355 0.00044787514881 0.0010307388333 0.0013760383491 -8.7306818626e-05 -0.0010280479284 
0.00062168917463 -0.00027758148403 -0.00045194392593 0.0015996426379 0.00065964206436 -0.0014392479479 0.00087294529897 0.0004829332175 -0.00086611296236 
0.0041995339261 -0.00049257589582 -0.0038296952055 0.0044046281684 -0.00043967199393 -0.0037185333092 0.0066528993342 0.0018953517378 -0.0062403005148 
0.008237179761 0.0023057007228 -0.0062173022514 0.019326540715 -0.00033900779916 -0.013254786914 -8.705139785 -2.0527562409 3.5524501492 
-8.781492558 -2.0368307648 2.7498863995 29.464959645 9.0559032686 -6.0044244083 24.167472476 6.988217648 -0.39983651528 
0.040386029839 0.01952946795 -0.00029705853173 0.0023296950834 -0.0078851579634 -0.0017743522136 -0.0036910579979 -0.0096410619069 -0.0016058863877 
-0.026924421007 -0.004849600215 -0.0026845766129 0.0040976941194 0.0033788242858 0.00038064932618 -0.00048515331558 -0.0010423859012 -8.0391957968e-05 
0.0012479687331 -0.00053887597285 -0.00012648560907 0.00038110009565 -0.00036717759962 -2.9455289782e-05 0.00021859842473 -0.00041146960286 -3.9119336762e-05 
0.00029601305345 -0.00033948652848 -3.4868126346e-05 -0.00011310754893 -0.00045897616745 -5.5244755844e-05 -0.0019535051857 -0.00015455250075 -0.00013354809884 
0.00031683854226 0.0005358704042 8.3941543005e-05 -0.0014503445974 -0.0010235247609 -0.00025086852143 3.5434905394e-05 -0.000569275475 -6.5198319798e-05 
-0.001461545406 -0.00038837574805 -0.00020495944694 0.0012166433003 0.00046678432004 0.00015791169223 -0.0003547242575 -0.00092428115028 -0.00010917498556 
-0.0012298578746 -0.0012136255192 -0.00011004833111 -0.0036261149668 -0.00095990024048 -0.00045437906726 -0.004322513198 -0.0011989935277 -0.00026885308715 
0.0030370529276 0.00066779189506 -0.00039187322874 -0.0028906523081 -0.0010800470125 0.00047748800736 -0.00091668773067 -0.0014223132344 0.00030090348156 
0.0007476954632 -0.00093655486679 0.00010969305142 -0.0016021839951 -0.0031373517675 0.0010614545297 0.0046817751044 -0.0013515773718 -0.00098127772164 
-0.0071542315249 0.0001412546128 0.00095141864052 0.0024883405734 0.0034006528616 -0.0021460178574 -0.00081098991411 0.00038579956009 0.0001315440174 
0.0025899766016 0.001402464258 -0.0018728139239 -0.002209566005 0.0019314964148 -1.0120730615e-05 0.0022273152863 0.0032212581374 -0.0028894494998 
-0.0013421329341 -0.00013151240864 0.00069688623406 6.4146220372e-05 0.00026953098716 -0.00016913859431 -0.0019000605756 0.00063000069044 0.00081441722682 
0.0012257415425 0.0013349645297 -0.0015568360936 0.00087039326399 0.00099358385227 -0.00099326039436 0.0013751383224 0.0010906133592 -0.0014511803821 
0.00044962000827 0.001275010774 -0.00097509870554 0.0064002245297 0.0026152818082 -0.0062003176672 0.0035090263191 -0.00044384693344 -0.0020194237164 
0.0031476701163 -0.00044066464322 -0.0013363862826 0.010401208781 -0.0026824697485 -0.0059073502505 -8.7418570815 -2.237220462 2.661006907 
-8.9375279676 -2.3189358492 3.2421789221 22.089661304 6.758233484 -3.0656979864 29.824380794 7.9516678568 -6.0199602093 
0.0019582657497 -0.0062580485694 -0.00063542808202 0.011144974394 0.00019695494793 -0.002521156617 0.0013701743355 -0.0028234453554 -0.00029662441203 
-0.0063000169004 -0.0011178939621 0.00012727237421 -0.00085295892971 0.000147903877 1.5799729396e-05 0.00035703628922 0.0012549275286 -7.6265930743e-05 
-0.0025367253692 0.00057039617791 -2.9780486185e-05 0.0011451543261 -0.00019968206626 -7.6877026867e-06 0.00032208869267 -0.00042845771661 1.7257291352e-05 
0.0040760484945 0.0030615857579 -2.1307710442e-05 -0.0034807707618 0.00077507652724 -0.00030855339488 -0.00035497284946 0.00033771108053 -2.9097531864e-05 
-0.0017276229759 -0.00010478735342 -0.0002092756662 -0.0039861080916 -0.0022030039778 -0.0004933976438 -0.00038414341119 -0.00092774572717 -2.9786957346e-05 
0.00014776541958 -0.00098102096041 2.3876145018e-05 -0.0003024275826 -0.0011290216914 -1.6707834915e-05 -0.0039549002044 -0.0044543279875 -4.1964301062e-05 
0.0042384591661 -0.0016215416978 -5.8147324733e-05 -0.001273031985 -0.0010880146139 1.6527669064e-05 0.0024741113572 0.00014379513552 -0.00014925030016 
-0.001043589896 -0.00063388914253 0.00028952310213 -0.00051848784331 -0.00049641947733 0.00026106264826 -0.0033019504355 -5.5389143987e-05 2.1476977422e-05 
-0.0028848710236 0.00014049648585 0.00016076163177 -0.0011801464068 0.0014822895802 -0.00066912171003 -0.00094472343167 0.0015497024295 -0.00069000274901 
0.0039389911384 0.0007085193473 -0.0012358451586 -0.00056082802604 -0.00018080970097 0.00028784018535 0.0027652170439 0.0019373902824 -0.0023836555705 
-0.0014612500104 0.0014243222203 -0.00045141520901 0.0031190459129 0.00035801495395 -0.0015072915111 -0.0013920917033 -8.941864854e-05 0.00063556250656 
-0.00039593150734 0.00053880077037 -0.00019897438044 0.00029446918867 0.00061838065338 -0.00052263771683 -0.00021878793356 0.00075377867987 -0.00038122716435 
0.00088638745742 0.00082598207923 -0.0010362050685 -1.0549499404e-05 0.00025292079906 -0.00014156213633 0.0023934732478 0.00044611055006 -0.0013595576512 
0.0016084866019 0.00055441045377 -0.0013464776135 0.0031246474453 0.00060137574739 -0.0021382165369 0.00098602922917 -0.00080479990418 -7.3527405161e-05 
0.0099137910313 5.7300070808e-05 -0.0029141717873 0.0020449600433 0.0023725305099 -0.0018012630749 -9.5476483265 -0.81365791397 2.8739422441 
-11.656738303 -1.8455831949 2.3509766123 21.770117204 6.0397812189 -0.27282919694 22.36411961 5.9717291759 -2.973391981 
0.01364159219 -0.0071158924479 -0.0020113895427 0.040732458348 0.010226286169 -0.007530314066 0.0012324798842 0.00059737910611 -0.00023274467916 
0.00020696855162 0.00081555747251 -8.9369710589e-05 0.00047851898041 0.00089916445615 -6.108124865e-05 -0.0045195155176 -0.0041463626507 0.00090619399954 
0.008992351441 0.00012106008564 -0.0013092571227 -0.0031293533727 0.002287062821 -0.00045019745069 0.0036673834492 0.0042547542879 -0.00038497961516 
-0.0018221187216 -0.00073885532704 0.00024891156525 0.00026922724976 -0.00021876170075 5.3933903188e-05 -0.003289253248 0.00030221473159 -0.00061452248248 
-0.0046704679228 -0.00012423353709 -0.00091392899329 -0.0053825220916 -0.00056879011065 -0.00055861265709 -0.0053632700648 -0.00054453863815 -0.00049838554561 
-0.00033573443554 -0.001139746856 0.00027103254133 -0.0046513626059 -0.0024629554862 4.14037825e-05 0.0025439612336 0.0033066076076 -0.0012675704769 
0.00010546085791 0.0026938025464 -0.0011304961276 0.0028585661122 0.0023009281999 -0.00079089737499 0.0024685826572 0.0021274819981 -0.0009578054621 
-0.0040106676806 -0.0019711693102 0.0009479409925 0.0013873204331 -0.00069152178413 0.00037143779453 -0.00057640580238 -0.00034316219842 0.00022203800527 
-0.00038666896822 -0.00027921641139 0.00022542473658 0.0019333565555 0.001355354083 -0.0012255826152 -0.0023304955317 0.00056272355034 -9.3736739189e-05 
-0.00036086668626 0.00024967104403 -0.0001132451237 0.0034843174725 0.00053571211328 -0.0016620714562 0.0033176882527 0.00057150190291 -0.0012415469512 
-0.0028844815599 -0.00020373939215 0.00089269895829 -0.00036094992833 -0.00077069519771 0.0006522162463 0.00022446581206 -0.00071965716394 0.00041021903462 
0.002305200136 0.00054917976227 -0.0011901791335 -0.0023606131176 0.00017326665957 0.00065619083232 0.00097672075384 -0.00078687448527 0.00012279872541 
0.0004984558107 -0.00081280053185 0.00032717452095 0.0035130850184 0.0010474632097 -0.0020357977435 -0.0028512442223 0.00062736853566 0.00050305375129 
0.0032549747698 -0.0014996830712 -0.00062874540601 0.0013529270185 -0.0014904314944 0.00031416715953 0.0054754969175 0.0011853691808 -0.0025561811956 
-0.0023509450599 0.00072343755156 0.00014564234055 0.011438087759 -0.0033183454788 -0.0014062685354 -11.714164344 -1.894508029 2.053482487 
-11.230384927 -1.5358774103 2.3208080538 17.5045334 3.7212049824 -4.3439471426 21.901984281 5.7205580792 0.37978579509 
0.036652448437 0.021096276734 -0.010137134383 0.0032857291111 0.0018506169335 -0.0012896706011 -0.0039903649499 0.00047381498725 0.00026753550532 
0.0017928042366 -0.00082060840041 0.00026177295673 -0.0051541564093 -0.0022752787022 0.00094676509957 -0.00014024967624 0.0017715443057 -0.00083474691824 
0.0015676099306 0.0021115202353 -0.0010889047067 0.0089758261847 0.00061881155643 -0.00048424959605 -0.0014311839636 -0.0016917030497 0.00073071411624 
-0.0010894112876 -0.001398650001 0.000623600781 0.00017223944587 -0.0010779630117 0.00050632867618 0.00062715519338 -0.0011208474115 0.00060439579513 
-0.0045351338854 -0.0028108597898 0.00035682760704 -0.0026240928221 -0.0011205079974 0.00021412396485 -0.00041687773239 -0.0005883334952 0.00025961233397 
-0.0055029072713 -0.00016082391584 -0.0011255479404 0.0030366787457 0.0020256919058 -0.00088158457827 0.00097676121724 0.00053602266242 -0.00027501893441 
0.00095013532017 0.00052172722565 -0.00028788638367 0.0009717219877 0.00052962203982 -0.00026575964986 -0.0013307471609 3.6161903694e-05 -9.587480849e-05 
0.00021831178319 0.0010069124707 -0.00092312223018 0.0017410065326 0.0013412788035 -0.0013012062963 0.00027990415016 0.0014958334587 -0.0014124738466 
0.0016276463525 0.0017672871037 -0.0018386948005 -0.0014771324418 -0.00054859032291 0.0004769105243 0.0013648585153 0.00015514327869 -0.00017248342132 
-0.0024455312971 0.00065681549372 -0.00036563420668 0.0028129131093 0.0014887411832 -0.0019697804712 -0.002164668581 -0.0017066693162 0.0014999850868 
-0.00089407066273 -0.001418649859 0.001281565206 -0.0025114427696 -0.00097813565401 0.0013768793271 0.0028960221345 -0.00062816064801 -0.00042851975836 
0.0014795150242 -0.0013836184818 0.00067031840527 0.0045428747396 -0.0013421331889 -0.00060866690735 -0.0026863810794 0.00074745265625 0.00019854701823 