# vtk DataFile Version 5.1
vtk output
ASCII
DATASET POLYDATA
POINTS 1114 double
73.136878967 91.056655884 21.741132736 72.724797648 90.294758318 20.602461149 71.338359341 90.315302215 20.912893267 
71.69882879 91.093585658 22.079320964 72.429300874 89.381092243 19.580732015 71.038893358 89.373065062 19.849277531 
72.321163462 88.223523767 18.746937423 70.872305139 88.196286566 19.058688299 72.174378057 86.982238393 18.058477363 
70.766750617 86.895201918 18.451362631 72.013816937 85.711112913 17.421820437 70.697822484 85.595080293 17.87032351 
72.163971934 84.312914168 17.196369044 70.805719243 84.183509108 17.587350696 72.337517739 82.905499411 17.017607211 
70.964591835 82.775775272 17.37470413 72.540793879 81.489454199 17.036755781 71.198685306 81.351980405 17.395277823 
72.790628686 80.095997574 17.143732422 71.445335744 79.942242589 17.415348897 73.180649943 78.770554361 17.515156178 
71.709949911 78.541193822 17.460093068 73.501513806 77.412346737 17.779813078 71.993505392 77.11190829 17.586587917 
73.705560155 75.998794966 17.864124274 72.217234699 75.731156831 17.912884566 73.917077151 74.621671974 18.103124567 
72.442849146 74.301325271 18.222735175 74.142921659 73.314413574 18.638793898 72.719269776 73.042609404 18.871293344 
74.36941641 72.058401681 19.254495902 72.990422056 71.797474314 19.566030046 74.598712981 71.023204898 20.215049181 
73.309416698 70.779203756 20.54904761 74.828009552 69.988008115 21.17560246 73.682129565 69.767400188 21.520802969 
75.398997715 69.260068047 22.238405144 74.219800924 68.985678498 22.629450605 76.064651157 68.617253112 23.329535913 
74.84171417 68.275578903 23.747622006 76.737112541 67.996108726 24.428504447 75.501852114 67.593300629 24.868789 
77.422725433 67.416827265 25.542613889 76.183926787 66.945704794 26.002161544 78.0928793 66.876690779 26.680916303 
76.875217677 66.321588662 27.159529954 78.695559237 66.507410161 27.924813653 77.542028223 65.865244559 28.387607792 
79.288401517 66.259221094 29.187806986 78.272941785 65.476980599 29.621930437 79.856097785 66.320553888 30.49961152 
78.973788842 65.2992539 30.911917272 80.395690467 66.470165022 31.812878753 79.622780209 65.412626587 32.311887204 
80.906942881 66.708797965 33.127621004 80.073471074 65.793317967 33.661902156 81.340273727 67.256301376 34.363173657 
80.371815161 66.505801277 34.950049462 81.742992657 67.917943492 35.561098268 80.680205502 67.336234026 36.137442734 
82.017429745 68.954739972 36.507992794 80.920851371 68.347157078 37.178441841 82.307898776 69.949252784 37.490481897 
81.207885957 69.338989061 38.224192229 82.637863422 70.839597348 38.560660288 81.50028364 70.31855394 39.273880165 
82.885538901 71.874083522 39.50193928 81.745299703 71.37150969 40.263604608 83.078506373 73.004398838 40.357522555 
81.985707988 72.465614606 41.234866077 83.278483776 74.082506635 41.275742042 82.045536294 73.683211472 42.020469347 
83.4799656 75.149410037 42.207404055 82.145441047 74.891444641 42.813988981 83.557995371 76.359245071 42.963773958 
82.22037841 76.161463929 43.513396692 83.626752804 77.579815531 43.706977877 82.311118929 77.445389017 44.175780542 
83.716940062 78.891107837 44.269338399 82.415048291 78.76647181 44.765701616 83.808681097 80.208977962 44.818586808 
82.518093921 80.092089828 45.312975209 83.720149043 81.610624156 44.921248566 82.52035099 81.489680908 45.591104178 
83.583422882 83.034666997 44.904520096 82.492253727 82.923161361 45.73719215 83.528777986 84.462915945 44.854464532 
82.420345412 84.370101433 45.725715344 83.489631806 85.891959097 44.798116092 82.322737278 85.816114461 45.604408078 
83.379364246 87.294381178 44.540568751 82.12283337 87.201873581 45.272730151 83.222179451 88.66792897 44.220775029 
81.861673083 88.531478317 44.818985574 82.81076526 89.88163547 43.584750821 81.519963398 89.786142637 44.229161988 
82.374550696 90.977331728 42.806469376 81.075325561 90.880480792 43.416928712 81.902455822 91.902294904 41.822375147 
80.589780381 91.859734353 42.483996755 81.399083378 92.879005973 40.909396386 80.074637111 92.796438632 41.527155537 
80.874197579 93.891310303 40.045332302 79.562546556 93.712396324 40.572756986 80.281370581 94.515057247 38.921035855 
78.983328156 94.294699348 39.429423387 79.68005994 95.055361088 37.741383731 78.406837126 94.864451321 38.2694104 
79.130586266 95.480053031 36.490549077 77.847590438 95.148814807 37.006117516 78.581784858 95.836241174 35.223557434 
77.29023851 95.42178182 35.735863346 78.034822259 96.00505527 33.912372621 76.733814844 95.579015629 34.437908679 
77.500116669 96.020817689 32.602192873 76.164448303 95.706169435 33.141010251 76.988360367 95.750015301 31.293894951 
75.617593303 95.674504109 31.825802117 76.457152635 95.371345726 30.026476863 75.062973008 95.394679068 30.529286415 
75.904693805 94.874828963 28.80372086 74.525867659 94.889046186 29.298456513 75.393078166 94.207750996 27.649631271 
74.002538311 94.258284113 28.115577901 74.858343922 93.544686814 26.503343081 73.478793466 93.590657961 26.947462586 
74.244759311 92.986864936 25.337486925 72.953130298 92.937998793 25.772656392 73.693437109 92.488165239 24.115688922 
72.447314313 92.42147198 24.515666441 73.312513551 91.859720967 22.912077169 72.035239525 91.82274815 23.277346093 
52.400375366 87.020599365 32.939464569 52.715506393 87.695199114 34.200230835 53.903240805 88.159515713 33.632690517 
53.680923871 87.373487007 32.424052795 52.935384132 88.438789023 35.439094484 54.113688417 88.934560584 34.854336549 
53.111821728 89.214468994 36.667906842 54.362320527 89.652349126 36.107348413 53.374272747 89.933893802 37.915893769 
54.675894336 90.253447966 37.382894043 53.676256194 90.528600396 39.174933553 55.128614655 90.681333777 38.740290497 
54.23936329 90.299505461 40.506980801 55.611232666 90.489919954 40.05642903 54.802470385 90.070410526 41.839028049 
56.145713691 90.26816076 41.391479675 55.34751376 89.609951533 43.115663071 56.658620766 89.696098225 42.588340017 
55.890960319 89.129040179 44.387399706 57.200173801 89.154653332 43.793512238 56.417620797 88.494285107 45.593825383 
57.740831748 88.566714356 44.991578326 56.939417246 87.814951426 46.781326195 58.28602162 87.939963844 46.173780907 
57.480612771 87.066387939 47.916883083 58.840059236 87.202123924 47.277990966 58.033132664 86.264347254 48.99732489 
59.426096447 86.404015745 48.333767802 58.642273822 85.171959295 49.758612981 59.996791656 85.402090622 49.191749116 
59.224353294 84.066477219 50.521709491 60.5385983 84.264319673 49.906903748 59.779984993 82.944413292 51.277846884 
61.055627542 83.09455826 50.586812683 60.163238232 81.621334374 51.774337663 61.498461524 81.834467198 51.141981599 
60.555504626 80.283433392 52.218217924 61.921321151 80.519438171 51.59646427 60.956706394 78.930838257 52.609941682 
62.354504298 79.179361349 51.959682722 61.474071796 77.563183272 52.636752063 62.800634724 77.813662558 52.140379737 
61.948999759 76.180099179 52.616297549 63.205115077 76.423931137 52.171549632 62.358765906 74.776092501 52.547153393 
63.530629783 75.029542517 52.154781884 62.409998499 73.343826405 52.328792647 63.613306193 73.629785484 51.799271504 
62.361360404 71.903688556 52.068867134 63.618977702 72.241699847 51.418899758 62.382043291 70.504877628 51.638409027 
63.522157115 70.949750352 50.831501502 62.404061129 69.113844994 51.186332745 63.462354601 69.659783094 50.247837346 
62.398352484 67.823992612 50.493388154 63.374495962 68.439488557 49.539916893 62.374824072 66.566507262 49.760322318 
63.321205928 67.253345179 48.767311794 62.20324832 65.577928507 48.693927565 63.095878113 66.26135124 47.802318136 
62.00558908 64.597507465 47.626658199 62.873935104 65.296485391 46.794799023 61.648655511 63.666900091 46.554048156 
62.47887221 64.479143836 45.733446535 61.289139704 62.757710694 45.468351711 62.136385961 63.69866027 44.622307051 
60.891861968 62.161731757 44.191283401 61.716192733 63.091771547 43.439886549 60.492107614 61.572520939 42.912316417 
61.314026739 62.55500889 42.219448497 60.039095024 61.128854637 41.592519551 60.874058685 62.144902289 40.963913412 
59.586698352 60.733931925 40.261396873 60.449058699 61.825504372 39.685920603 59.137107499 60.561060933 38.878679387 
59.950037357 61.733423293 38.41033378 58.636616183 60.622312575 37.541802432 59.472223392 61.794623891 37.15547058 
58.048498245 61.086613115 36.283841279 58.978268286 62.029664038 35.966777293 57.407796273 61.842513775 35.24600997 
58.39108749 62.491983595 35.009042439 56.734311377 62.780209245 34.345416132 57.974196596 63.253768216 34.184292509 
56.167481517 63.839606977 33.511452845 57.544902991 64.197080418 33.308944089 55.649655938 64.932575666 32.690215807 
57.114023066 65.205112387 32.414770037 55.305882184 66.103565659 31.881187993 56.732204258 66.327472302 31.584119708 
54.976504864 67.310534455 31.124327157 56.382540444 67.496965904 30.780080379 54.666976312 68.567108239 30.439390399 
56.062429113 68.733358117 30.073224301 54.405196152 69.836201021 29.758332675 55.776403381 70.024538623 29.440926049 
54.15217252 71.117915542 29.101613487 55.499866742 71.335691147 28.859570216 53.813944154 72.4659753 28.640896196 
55.223083691 72.700766352 28.40525296 53.648906136 73.87855756 28.352241131 55.008545421 74.104625536 28.049729956 
53.563520257 75.329998293 28.19372881 54.833580004 75.546548677 27.842581565 53.392065228 76.78301556 28.13656279 
54.637960752 77.000863584 27.753383481 53.291099541 78.232783921 28.302994431 54.437066687 78.461767641 27.828840052 
53.01955494 79.64149122 28.561692201 54.187458925 79.898609935 28.062128624 52.683626698 81.006271975 28.953088466 
53.904737451 81.310087206 28.409556029 52.396600314 82.333094928 29.497841359 53.657242149 82.692698699 28.888401804 
52.295905912 83.632656306 30.164868213 53.560922608 83.989199246 29.582174323 52.30198767 84.80358592 31.028900003 
53.54931 85.202003974 30.426158591 52.35066855 85.917553039 31.977829505 53.594057451 86.322887625 31.388552662 
[...]
POINT_DATA 1114
FIELD FieldData 21
Circ_Strain_Pt 1 1114 double
0.99246536345 0.99152515863 0.99212576767 0.99574691468 0.99187845002 0.99093162943 0.99431047853 0.99324026575 0.9938653964 
0.99529744114 0.99239479514 0.99462680204 0.99597694852 0.99586008856 0.99930606933 0.9982329263 0.9967352484 0.99882523684 
0.99418908277 0.99821026413 0.99171715518 0.99818560587 0.98814217551 0.99703058465 0.98270396804 0.99510516366 0.98082971171 
0.99436169442 0.9857905458 0.9940470532 0.99027571132 0.99517143044 0.99271127745 0.99565341514 0.99514684358 0.99588178915 
0.9967768695 0.99697506739 0.99818372138 0.99812462302 0.99901063014 0.99916669546 0.99871721118 0.99876774823 0.99840885546 
0.99834387359 0.99803530542 0.99599927913 0.99764484193 0.99365858207 0.99721114601 0.99437390889 0.99628422706 0.99421276448 
0.99485993121 0.99566331946 0.99379978027 0.99597990872 0.99295625499 0.99612834386 0.99407413472 0.9979709609 0.99513109183 
0.99849244125 0.99603796255 0.99743668663 0.99699258938 0.99678298212 0.99797896575 0.99695931456 0.99802728422 0.9977930602 
0.99787428358 0.9988877157 0.99647008391 0.99878982009 0.99497190816 0.99765021306 0.99099580688 0.9956466801 0.98684004276 
0.99185085854 0.99114602159 0.99319104042 0.99771415809 0.99720824483 0.99763547846 0.99694328683 0.99630173636 0.99654945788 
0.99495277083 0.99520236212 0.99392814952 0.99437254087 0.99476097492 0.99323247364 0.99456377629 0.99406774954 0.99287637502 
0.99657225714 0.99177665747 0.99610095668 0.99108116084 0.99434883261 0.99441842215 0.99552174979 0.9981488238 0.9974908088 
0.99749955056 0.99830831021 0.99696811526 0.9986267655 0.99675899449 0.99850730274 0.99691405266 0.99672987234 0.99775097769 
0.99491875742 0.99796913486 0.99623937152 0.99751127502 0.99776129689 0.99795037239 0.9985543324 0.99797843116 0.99839094876 
0.99650891691 0.99654881864 0.9949708226 0.99536253278 0.99360378623 0.99570194396 0.98725235509 0.98935708573 0.99700509692 
0.9957508593 0.98775787984 0.9978649485 0.98173245479 0.99622242791 0.95268112869 0.98601628245 0.93165283378 0.98036386742 
0.96361908662 0.98535575659 0.99558533947 0.98985008859 0.99833890945 0.99341709497 0.99851010628 0.99652991281 0.99879990053 
0.99827678499 0.99912406023 0.99869612875 0.99554819049 0.99756520013 0.99215129808 0.99638988591 0.99396592565 0.99676161219 
0.99546833941 0.99828308487 0.99670087041 0.99811490854 0.99703994769 0.99865961778 0.99742357448 0.9989222263 0.99785136632 
0.99873338193 0.99828198475 0.99845401686 0.99804224284 0.99680288396 0.9968617075 0.99520245759 0.99751665385 0.99565806287 
0.99868287961 0.99667370478 0.99923957814 0.9979040083 0.99958819383 0.9982901959 0.99687062453 0.99739445641 0.99458204358 
0.99666128557 0.99585751498 0.99686499657 0.99705321145 0.99791703003 0.99776177613 0.99818949335 0.99844938962 0.99837406381 
0.99883061887 0.99854999789 0.99918802715 0.99861243876 0.99903317933 0.99825279973 0.99881049201 0.99782287893 0.99827876141 
0.99770704248 0.99575656834 0.99597174178 0.9898077364 0.99163020198 0.98883082967 0.99180430865 0.99095361371 0.99385553106 
0.99540290748 0.99649286841 0.99945066171 0.9988685045 0.99936010516 0.99938215413 0.99936926519 0.99943148017 0.99951590729 
0.9989959985 0.99939532564 0.99794451526 0.99906691523 0.99722993336 0.99785128939 0.99799730864 0.99776035894 0.99874051497 
0.99815752833 0.99947328732 0.99788894917 0.99923011198 0.99815210936 0.99915567148 0.99851706122 0.99933747685 0.99873380378 
0.99885788094 0.99855274387 0.99839871462 0.99683435937 0.99751977781 0.99659524901 0.9981233389 0.99423928913 0.99771166113 
0.98528737088 0.98800686992 0.99283935184 0.99763494107 0.99680211966 0.99746054203 0.99820759363 0.99874664233 0.99893635018 
0.99857749819 0.99816466201 0.99411335792 0.99035351927 0.99066059131 0.99095647667 0.99255233277 0.99374006074 0.99545353654 
0.99731310798 0.99875166719 0.9991417876 0.99913027358 0.99887373513 0.99682368757 0.99217772565 0.98645832998 0.9843226463 
0.98831897638 0.99639654555 0.99676808395 0.99626379512 0.99695475607 0.9976361382 0.99849538585 0.9987643347 0.9993111413 
0.9990050327 0.99829684092 0.99690562909 0.99595549099 0.99550718494 0.99508870762 0.99486732167 0.99459616177 0.99530797115 
0.99559010456 0.99560473713 0.99640144476 0.99528415274 0.99415880374 0.9929752302 0.99380095994 0.9944934241 0.99655580045 
0.99883400506 0.99622195869 0.99308765797 0.99115296067 0.992392491 0.99792805139 0.99891779278 0.99852150798 0.99809287984 
0.9981293201 0.99864527624 0.99476673977 0.9975297018 0.99815533626 0.99494980553 0.99255026297 0.98915653463 0.98839438107 
0.99017055532 0.99311974535 0.99584383246 0.99683784734 0.99746560592 0.99713658014 0.99684674247 0.99662978943 0.99712799471 
0.9986400489 0.99875106046 0.99850131738 0.99799168665 0.99586219859 0.99341781013 0.99126799235 0.99268448407 0.99767479002 
0.99782651901 0.99807013224 0.9985020337 0.99865060608 0.99809509334 0.99765269668 0.99776080681 0.99783272431 0.99770522687 
0.99749888266 0.99746317313 0.99708960332 0.99486415495 0.99271125619 0.99104221586 0.99148203253 0.99483613662 0.99865572726 
0.99881312293 0.99879352512 0.99900231309 0.99921310593 0.99926520559 0.99923124225 0.99919481069 0.99893047401 0.99958364874 
0.99941220637 0.99918643368 0.99881362872 0.99841358129 0.99801348566 0.99785895 0.99731747384 0.99695537168 0.99762609998 
0.98966440123 0.9843926081 0.994240447 0.9959832677 0.99744337768 0.99745678982 0.99767213729 0.99798927057 0.99798010492 
0.99761303942 0.99774045535 0.99743253049 0.99326859816 0.98714590056 0.98883740686 0.99628034346 0.99898833258 0.99923189671 
0.99945139014 0.99932273867 0.99911256198 0.99863297721 0.99669079503 0.99316939392 0.98701333672 0.98035679005 0.97975363783 
0.98559692865 0.99620530154 0.99788149312 0.99804183847 0.99865500961 0.99830059143 0.99839180488 0.99820307249 0.99869332932 
0.99910485194 0.99867734178 0.99699825285 0.99539520217 0.99572101708 0.99675639257 0.99670507798 0.99546351491 0.99443775343 
0.99396089082 0.99567228934 0.99669977834 0.99460612803 0.99256105313 0.9901852052 0.9898504972 0.99052652376 0.99193782002 
0.99678557129 0.99706045556 0.99364517751 0.99400660667 0.99659560561 0.99883625315 0.99950116145 0.99920221893 0.99834763003 
0.99808832267 0.99840551243 0.99141337512 0.99863343016 0.99879549385 0.99631199673 0.99216958412 0.98816406901 0.98524038176 
0.98679078803 0.99013394797 0.99451411643 0.99764939512 0.99832432904 0.99725948486 0.99595030799 0.9964784346 0.99807465133 
0.99930656775 0.99936948903 0.99901428499 0.99748927489 0.98990408361 0.98441643849 0.98538934513 0.98988484674 0.99566372382 
0.99794145174 0.99878130522 0.99853612163 0.99769102428 0.99730005924 0.99755792659 0.99782791654 0.99801676057 0.99809291331 
0.99779999034 0.99701184619 0.99644149106 0.99556746186 0.99454183861 0.99767630234 0.99879085654 0.99858065016 0.99826587734 
0.9982074574 0.99858643012 0.9991374163 0.99929283641 0.9989849788 0.99911122992 0.99953246996 0.99927817731 0.99892919579 
0.99893070587 0.99871347627 0.99844581431 0.99669951964 0.99571771103 0.99654802018 0.99853036602 0.99777757195 0.99256658891 
0.99779585413 0.99679894097 0.99632916005 0.99633438165 0.99677746858 0.99769714917 0.99845606861 0.99650645238 0.99373235383 
0.99274429291 0.99463195322 0.99566270331 0.99564260805 0.99651504607 0.99833364769 0.99903833223 0.99962570122 0.99961466131 
0.99556825715 0.99234237764 0.99163883216 0.97742366604 0.96024103816 0.9687426626 0.98406860082 0.9962298058 0.99849829163 
0.99956431754 0.99944058646 0.99831324315 0.99594819468 0.99599133869 0.997762913 0.99868479684 0.99892695183 0.99738156948 
0.9962513134 0.99682397072 0.99830450111 0.99847117052 0.99613113556 0.99414643441 0.99400062418 0.99422709393 0.99270056039 
0.98958088928 0.98956518037 0.99233502007 0.99504314277 0.99768020658 0.9988993243 0.99887367966 0.99803281844 0.99654253992 
0.99627730387 0.99786641163 0.99888135947 0.99933180266 0.99903927509 0.99798737817 0.99786373314 0.99631564918 0.99304234235 
0.98996993505 0.9979301753 0.99919893017 0.99339242359 0.98632958847 0.98286111082 0.98872221115 0.99518482713 0.99698874713 
0.99813666206 0.99822131665 0.99726812376 0.99599485757 0.99663530243 0.99826384398 0.99881631946 0.99754987064 0.99503185451 
0.99161994475 0.98782275195 0.98555812798 0.99129780277 0.99520550169 0.99632234424 0.99749217674 0.99869745995 0.99860550181 
0.99832428089 0.9979666955 0.99824449305 0.9985958902 0.99736381705 0.99591509393 0.99454603582 0.99324942728 0.99312269668 
0.99410929715 0.9959151075 0.9967744157 0.99735205812 0.99701589053 0.9982329303 0.99910624184 0.9986158326 0.99839291034 
0.99842812885 0.99886468122 0.99955011455 0.99934327031 0.99893780389 0.99887415354 0.99817548048 0.99748060057 0.99708004081 
0.99661632039 0.99639994833 0.99738295177 0.99834926257 0.9992234988 0.99711586501 0.99721506843 0.99670223285 0.99579854822 
0.99562880473 0.99666210415 0.99752648914 0.99696961435 0.99618584893 0.99572732173 0.99559145093 0.99584370511 0.99610986073 
0.99639967405 0.99776505374 0.99770395436 0.99812336958 0.99838513993 0.99919160077 0.99924935589 0.99640558197 0.99063722247 
0.97477497009 0.96732619229 0.97686112974 0.99436708224 0.99705126292 0.99859379268 0.99953529079 0.99731040745 0.99501516684 
0.99320444576 0.99317753461 0.99826775777 0.99909601796 0.99815772565 0.99754716084 0.9973101011 0.99824581732 0.99823388826 
0.99519011779 0.99306698025 0.99220902127 0.99198833668 0.99284216893 0.99132467531 0.9896410729 0.98952109974 0.99301985507 
0.99764076671 0.99925000127 0.9995916484 0.99847279165 0.9973637284 0.99741001702 0.99761048756 0.99885148249 0.99927181535 
0.9992921832 0.99918414237 0.99875389858 0.99817644351 0.99727458268 0.99351778009 0.99304876903 0.99487409191 0.99180510309 
0.99584164733 0.98623208552 0.98347706246 0.98490402854 0.99003121738 0.99476328724 0.99803969457 0.99830441829 0.99836466188 
0.99775848025 0.99780086155 0.99832282894 0.99819285254 0.99806090093 0.99727672478 0.99572706293 0.99418957344 0.99312377937 
0.99304363405 0.99443507735 0.99685382353 0.99889823182 0.99849911317 0.99826516902 0.9980392053 0.99775705273 0.99747865257 
0.99722561621 0.99750827722 0.99670149834 0.99385709919 0.99419609924 0.99586050919 0.99783055844 0.99804928026 0.99852085655 
0.99689395508 0.99277583771 0.99411864831 0.99640889462 0.9974615198 0.99680354091 0.99641193836 0.99835350175 0.99926993328 
0.99948134639 0.99962613318 0.99822152718 0.99743555812 0.99759352628 0.99774595179 0.99691463667 0.99612675165 0.9962418171 
0.99750247806 0.99916246777 0.99793017043 0.98849458494 0.99352692586 0.98511010223 0.98888217972 0.99590492207 0.99748915419 
0.99746551441 0.99690084927 0.99692828776 0.99746700914 0.99818049169 0.99880665438 0.99871309324 0.99901267968 0.99799376193 
0.9958707484 0.99453216814 0.99429896073 0.99332885721 0.99289552516 0.99328816647 0.99481678224 0.99708779413 0.9978226196 
0.99813288584 0.9978531061 0.9972249314 0.99572546405 0.99553022556 0.99436244624 0.99301747691 0.99157199084 0.99515037551 
0.99806235388 0.9987487756 0.99760629311 0.99680675732 0.99562236686 0.99530321956 0.99584199555 0.99465101578 0.99541953166 
0.99764911299 0.99840704267 0.99918043122 0.99932005902 0.99958555983 0.99946721788 0.99825558037 0.99787756729 0.99574860796 
0.99542115731 0.99481467716 0.99584609383 0.99644054045 0.99826081134 0.99758432259 0.99674827212 0.99551783017 0.99400458887 
0.99771772489 0.99736239185 0.9976931404 0.9976193497 0.99771361258 0.99826618556 0.99892633865 0.99780147339 0.99632954999 
0.99569525357 0.99635946913 0.99692495259 0.99711855043 0.99698840157 0.99800605363 0.99910926744 0.99957391817 0.99972353632 
0.99960346731 0.99791680248 0.99485052768 0.98954648108 0.98780779873 0.9880601726 0.99043558499 0.99339880626 0.99678615145 
0.9996391514 0.99961949022 0.99842882472 0.99319072897 0.99131729999 0.9991081419 0.99858297751 0.99865916171 0.99813838436 
0.99823144348 0.9982311285 0.99814517981 0.99668746295 0.99316302583 0.98980403574 0.98967155926 0.9906067214 0.99119756897 
0.99148857511 0.99148516963 0.99243152109 0.99437408251 0.99716341973 0.99853352136 0.99948208675 0.99964953047 0.99901681748 
0.99890503916 0.99893005648 0.99891037375 0.99910348842 0.99928459119 0.99888521988 0.99800436482 0.99747821374 0.99641568437 
0.99395294736 0.99489864927 0.99663832023 0.99587438187 0.99392453637 0.99469864752 0.99307645941 0.99329472145 0.994406246 
0.99455795767 0.99629281498 0.999342629 0.99936642294 0.99859095924 0.99758984973 0.99772758035 0.99779160306 0.99684222887 
0.99607148545 0.99596495373 0.99731842977 0.99894428282 0.99985802643 0.99933733064 0.99769334599 0.99904185537 0.99507142542 
0.99503977918 0.99568637556 0.99647259013 0.99826434755 0.99784472942 0.99648611119 0.99589257496 0.99376613304 0.99017158887 
0.98892042412 0.99103964769 0.99460088625 0.99843283327 0.99724340787 0.99510138336 0.99471357917 0.99566392371 0.99785146356 
0.99847336655 0.99890912649 0.9983431524 0.99599097658 0.9944726736 0.99488813667 0.99209361264 0.99487527753 0.99171773874 
0.9947392579 0.99521362383 0.99667217007 0.99725667873 0.99604273182 0.99561868562 0.9892496219 0.99670885835 0.99715454542 
0.99732834793 0.99821239805 0.99838731217 0.99786427295 0.9976447456 0.99761770665 0.99502847333 0.99083525508 0.98670699798 
0.98889575236 0.99056692551 0.99256835806 0.99466802159 0.99631102436 0.99750874801 0.99852450547 0.9991568593 0.99901929815 
0.99881403216 0.99892147474 0.99903150336 0.9991314442 0.99929664981 0.99937990728 0.99882967431 0.99687589091 0.99556173191 
0.995621549 0.99511828764 0.99540455826 0.99634826872 0.99752632188 0.99832835802 0.99894443422 0.99880638841 0.9987879801 
0.99869150919 0.99908191681 0.99919642718 0.99934547431 0.9982527179 0.99616797487 0.9958682834 0.9972608115 0.99808776002 
0.99791304973 0.99793076034 0.99810327563 0.99912557737 0.99899887195 0.9977783884 0.99755224625 0.99525319427 0.99227854508 
0.99063068159 0.9930137749 0.99604553554 0.99831462274 0.99957733251 0.99961612515 0.99971025294 0.99709675161 0.99477325777 
0.99350041113 0.99278348493 0.98851874036 0.99331597599 0.99468302445 0.99365391255 0.99633784999 0.99795102319 0.99678122006 
0.99603310917 0.99490760073 0.99276457158 0.99539602368 0.9929840279 0.99816368197 0.99899547436 0.99631474496 0.99601065757 
0.99685177612 0.9972276101 0.99665346929 0.99691837481 0.99682154422 0.99442502795 0.98959536631 0.98794021793 0.98639242334 
0.98844787921 0.99167436136 0.99567007252 0.99691112506 0.99680677063 0.99787834095 0.99895118213 0.99866154528 0.99799334718 
0.99846243651 0.99893437643 0.99897319702 0.99927511202 0.99858516118 0.99557238896 0.99450454745 0.99429676989 0.99429249956 
0.99494028865 0.99431441033 0.99787674062 0.9955629176 0.99310584259 0.99641691251 0.99738664848 0.99767880635 0.99790848481 
0.99633538254 0.99505775073 0.99605907108 0.99705381458 0.99670661588 0.99692143536 0.99713279393 0.99673401463 0.99456586012 
0.99360423196 0.9947260001 0.99548906315 0.9977304014 0.99730085928 0.99737650596 0.99815974628 0.99873752068 0.99884526558 
0.99853802476 0.99939121826 0.99747976556 0.9969780745 0.99756702384 0.9980959674 0.99856277628 0.99799636718 0.99823625817 
0.99863863653 0.99947610872 0.99888671256 0.99734569496 0.99613410582 0.98909720431 0.98959243665 0.98988351122 0.99299123582 
0.9976200248 0.99923353489 0.9996254473 0.99903561355 0.99788799975 0.99512411901 0.99045386833 0.99417452628 0.99820122819 
0.99321239148 0.99811517418 0.9977576142 0.99668060191 0.99375198471 0.99220719966 0.99244463904 0.99351886749 0.99527187046 
0.99052137455 0.99945028989 0.99907841805 0.99951605666 0.99608744861 0.9936791728 0.99667734698 
Circumferential 3 1114 double
-0.13939775624 -0.54080877584 -0.82951439622 -0.090958451614 -0.65286202088 -0.74274527925 -0.071682960776 -0.64414025546 -0.74971901359 
-0.1156866061 -0.52748310013 -0.84113810039 -0.043203375647 -0.75473137363 -0.64643806034 -0.030166876234 -0.77268118158 -0.62683635911 
0.0034520979355 -0.840234513 -0.5348024574 0.019351399167 -0.85013572197 -0.51606534738 0.067131013205 -0.89975717184 -0.40799999872 
0.066799056203 -0.90089753713 -0.41820185966 0.13687777216 -0.95001932936 -0.27579146132 0.12454438767 -0.94391517653 -0.2959834411 
0.15926795574 -0.96843327602 -0.15389835097 0.16940044309 -0.96321121751 -0.18821202815 0.18051695026 -0.982250358 -0.036535572914 
0.2063679807 -0.97401821209 -0.086506808545 0.22166177842 -0.97085536942 0.042009600574 0.22887038525 -0.97221413524 -0.031736156952 
0.25935311349 -0.95834341356 0.11350515925 0.25226594893 -0.96689609771 0.024711933916 0.28664610932 -0.9424683117 0.1637745717 
0.28100640842 -0.95744127417 0.055353571834 0.31205967412 -0.9234045255 0.21714623017 0.31440163664 -0.94286505446 0.097818798872 
0.33429858319 -0.8989545592 0.2757580727 0.32978917612 -0.92457402354 0.18227618269 0.35320033017 -0.86339634464 0.34854756668 
0.34886028341 -0.88466056933 0.29896636196 0.36570193198 -0.80653427987 0.44852753712 0.37447571563 -0.80571972041 0.43854698961 
0.37956164022 -0.74328242579 0.5450489529 0.39128766116 -0.72035439073 0.57170470838 0.39927326768 -0.65249772895 0.62666786771 
0.39746300169 -0.65226751284 0.63566664329 0.41898489514 -0.56171303211 0.70828678251 0.40550264849 -0.58886487942 0.69479845283 
0.4437342198 -0.50284065334 0.7387600344 0.42703480764 -0.51595387277 0.73962052134 0.46987923292 -0.45280954712 0.75506343674 
0.45975670706 -0.47194008255 0.74950705007 0.49194503381 -0.39741495013 0.77265938021 0.48936197866 -0.42782633493 0.75906857891 
0.50613065749 -0.33165922082 0.79275224036 0.51073999815 -0.37023752493 0.77324926617 0.51175460852 -0.25514725184 0.81685166951 
0.52897842317 -0.3156430595 0.78742816353 0.48000947089 -0.13168757881 0.8584385498 0.517390333 -0.2321347235 0.81916139433 
0.44167041679 -0.017351514107 0.89423385873 0.49951485153 -0.13152449713 0.85322158464 0.3864766667 0.073663714602 0.91522534432 
0.42828568244 0.0036444822709 0.89342393396 0.32324560563 0.17447797953 0.92434693034 0.31537417154 0.17265346157 0.9218156982 
0.25190954456 0.28517380667 0.92149865031 0.19329116401 0.33690119299 0.91416173761 0.170687318 0.41887748817 0.87962576828 
0.11653684389 0.46541605581 0.87000650996 0.090027375201 0.55259702288 0.82855944475 0.064716410913 0.57198611712 0.81742937318 
0.075398412815 0.55716221474 0.826866131 0.0504835835 0.58702033065 0.80782582925 0.056517163244 0.57132039354 0.81804168484 
0.045800224134 0.58771942548 0.80774890665 0.027160159281 0.60911144816 0.79164928325 0.033244495135 0.61884855685 0.78392076794 
0.019069619383 0.64956592351 0.75856350335 -0.01194476021 0.67139634448 0.73869265614 0.025117585047 0.69179111114 0.7210277892 
-0.068716109675 0.71207696443 0.69840456173 -0.047653940533 0.72067014846 0.68525844837 -0.11440687938 0.75240798241 0.64515573345 
-0.137341128 0.74668493274 0.64986819365 -0.15543621332 0.7851582907 0.59918960113 -0.17675501443 0.77914661964 0.59702325519 
-0.18562167259 0.79597120334 0.57396144476 -0.21239293229 0.81209252581 0.54286731595 -0.23645057285 0.8072625805 0.53828742658 
-0.29594974869 0.83390089613 0.44253266776 -0.27889228336 0.82294677054 0.49080575738 -0.38298094132 0.85490173557 0.33884981636 
-0.3120987073 0.84964561036 0.41751192134 -0.36371605508 0.89081157237 0.25489193948 -0.30341291826 0.89011406395 0.32998450526 
-0.31603403398 0.93070717226 0.17620732637 -0.29405148416 0.92172054168 0.24612346549 -0.33400606223 0.93374079703 0.11120451278 
-0.31577714682 0.93381705494 0.13576410512 -0.3643749932 0.92981408462 0.048785118487 -0.35144785696 0.933670211 0.023446463235 
-0.42555951245 0.88900266569 -0.088501308867 -0.41526577448 0.89561632366 -0.10641047889 -0.48281988484 0.84140196235 -0.22887727705 
-0.47437305716 0.84091845978 -0.24363184956 -0.51156883142 0.76225487075 -0.37215837814 -0.51763061685 0.75800572228 -0.38006358864 
-0.51980680163 0.70794636207 -0.47629430695 -0.52240853463 0.69961992275 -0.48177307003 -0.49837021016 0.68957344455 -0.52379637257 