# vtk DataFile Version 5.1
vtk output
ASCII
DATASET POLYDATA
POINTS 1116 double
52.981952374 75.224627905 44.021810855 52.762770133 74.803224387 45.426238787 54.126585875 75.145531872 45.319304651 
54.216215249 75.496217783 43.827675833 52.514343937 74.241474147 46.81085609 53.99477933 74.695014409 46.761737461 
52.512567501 73.51821966 48.147282066 53.996705747 74.028912678 48.104230022 52.671361103 72.774195605 49.452631681 
54.142807179 73.289148899 49.389660363 52.986175385 72.009990437 50.727785407 54.449245839 72.524419569 50.633412891 
53.508182778 71.128340809 51.848985592 54.910739397 71.682108914 51.778672212 54.083627732 70.240726585 52.938359959 
55.449327254 70.808122609 52.873502176 54.712482438 69.350104612 53.996881974 56.032585118 69.859072147 53.898189741 
55.359551364 68.111388171 54.591362428 56.627921992 68.643100916 54.463234237 55.833333608 66.746358937 54.979930661 
57.126353821 67.293019123 54.807381318 56.173416613 65.283387911 55.207598694 57.551685824 65.874871899 55.026262947 
56.6374309 63.866423386 55.500919119 58.020691707 64.478670546 55.322351474 57.150717018 62.449004321 55.620221885 
58.551143396 63.103050087 55.544892759 57.718450106 61.043354858 55.633725571 59.183891206 61.760161777 55.725424257 
58.584484292 59.811266214 55.836400085 59.961269776 60.479221349 55.791482413 59.446778566 58.574560434 55.929540707 
60.772018224 59.213963712 55.807792249 60.300536009 57.327315448 55.772656131 61.57312748 57.945945205 55.645767805 
61.033635859 56.07595518 55.400822289 62.301068128 56.66937285 55.270517079 61.632662288 54.820022055 54.79013913 
62.883290089 55.43304687 54.598953034 62.007686075 53.626637547 53.951167576 63.324971926 54.216202335 53.747005441 
62.292182872 52.458303694 53.022727279 63.683857234 53.01635215 52.815391988 62.399306677 51.331754946 52.008554214 
63.909450981 51.829085142 51.68891711 62.421762814 50.258970814 50.946482895 63.816941767 50.631280487 50.539377826 
62.240189569 49.315746899 49.768987927 63.609556416 49.638853897 49.339720118 62.020413574 48.565402224 48.479553307 
63.35729763 48.910393805 48.061688648 61.771071691 47.954186561 47.112293482 63.061155526 48.309107094 46.708764725 
61.283540141 47.817048025 45.679589532 62.634422706 48.177663867 45.301183616 60.793849724 47.874824951 44.256652183 
62.159084029 48.263698398 43.894755885 60.301821519 48.143671229 42.844290855 61.658448769 48.52932662 42.508583803 
59.773116973 48.456820498 41.454531674 61.125583322 48.897127249 41.155462034 59.197815358 48.809774327 40.094657079 
60.578264275 49.299048773 39.817121255 58.583519461 49.212659591 38.766607249 60.040973924 49.748756823 38.496918891 
58.141963396 49.983221528 37.533563398 59.533816877 50.428996396 37.259552066 57.589090183 50.862914529 36.44353117 
59.004059631 51.236438977 36.108754698 56.93433884 51.844563224 35.486271412 58.468097473 52.21030512 35.104351883 
56.506731893 53.001265701 34.598394014 58.010792414 53.315309764 34.181497663 56.120336964 54.207670214 33.764382244 
57.601184764 54.485164704 33.30836356 55.785505384 55.47626055 32.997765673 57.229319688 55.729765395 32.524820399 
55.467232998 56.818326306 32.362597263 56.875162776 57.053651638 31.845804364 55.1720488 58.206683296 31.837853672 
56.52901112 58.42332331 31.261320376 54.915957978 59.662644458 31.486102081 56.181077153 59.855209724 30.818944162 
54.51618653 61.112928841 31.286389922 55.801813554 61.33925417 30.510327698 54.128147418 62.573406367 31.133993538 
55.432423082 62.845933938 30.276930275 53.781157666 64.048076664 31.015333428 55.070665565 64.47402344 30.178635688 
53.489726109 65.509035586 31.310653616 54.630228402 66.051211914 30.554649407 53.244571362 66.889218617 31.854071249 
54.313548635 67.447821176 31.189976609 53.028695308 68.167629068 32.630377683 54.080364163 68.736592425 32.041406016 
52.793839347 69.230167362 33.691032974 53.974627534 69.826107556 33.135925902 52.628981507 70.215593292 34.831712796 
53.897947529 70.824755635 34.303299021 52.50365448 71.157470703 36.017585754 53.850038702 71.77045205 35.528959802 
52.476456651 72.046785514 37.249459953 53.834679999 72.657055641 36.794077815 52.481348467 72.885247774 38.513693664 
53.84073048 73.509258828 38.08502092 52.539952801 73.638591652 39.832091605 53.89741577 74.282048199 39.427356976 
52.632335566 74.366539546 41.162631786 54.012726829 74.913053501 40.838066999 52.769112914 74.942384948 42.543916111 
54.144877878 75.340895073 42.328652645 84.390699466 55.635742141 42.826813071 84.662955148 56.050373095 44.271560537 
83.435777221 55.499145261 44.495189969 83.334886019 55.09038866 43.023845258 84.868621153 56.621290199 45.676183056 
83.532803284 56.097018593 45.910565296 84.909569379 57.359364797 47.030391546 83.600515434 56.809059511 47.274324384 
84.959909948 58.340440904 48.210910729 83.579827776 57.796052054 48.481610382 84.996879342 59.385693332 49.343093132 
83.513799194 58.8563019 49.618263358 84.805285386 60.508216654 50.384027641 83.326642004 60.015268719 50.629737375 
84.595512377 61.655137928 51.390522163 83.102447413 61.198521793 51.613378421 84.318190159 62.892716428 52.269045554 
82.805449712 62.474415391 52.433690498 83.981537438 64.166405941 53.042319158 82.47593572 63.772421682 53.220020011 
83.470495541 65.546235967 53.506233788 82.066990175 65.187728245 53.68463401 83.015481097 66.959090449 53.892074198 
81.683184271 66.62714138 54.083955779 82.713718692 68.462276814 54.064357995 81.350444069 68.110317779 54.359204784 
82.401092161 69.965544665 54.211690973 81.025971745 69.607205066 54.587125061 82.072990247 71.468928589 54.323482808 
80.674763085 71.114191695 54.74911182 81.663064163 72.952886447 54.324716012 80.267164754 72.619037211 54.778256241 
81.210140613 74.426636177 54.267852188 79.824739403 74.121663502 54.736737588 80.660787589 75.749826462 53.707399717 
79.263166397 75.530630041 54.281545548 80.145024548 77.000435112 53.004329388 78.750346472 76.89048154 53.571389164 
79.737077797 78.066288231 51.966134761 78.264031248 77.918475627 52.452826279 79.361106224 78.965978612 50.784722259 
77.868059792 78.842531551 51.207749291 79.007112521 79.751458431 49.504870152 77.503129347 79.676774279 49.91270093 
78.552418624 80.265157166 48.124462709 77.100682094 80.116582678 48.439508674 78.181440485 80.723918322 46.705573806 
76.761786533 80.517652805 46.958960366 77.965745382 81.107041725 45.226721689 76.479109596 80.878929292 45.469338059 
77.734878593 81.08323319 43.711779904 76.236443063 80.964458535 43.928938836 77.522270531 81.02564436 42.186186484 
76.000307904 80.871230925 42.390301634 77.349988167 81.049564131 40.653196551 75.797207944 80.793273152 40.843167851 
77.152244147 80.875711743 39.134151151 75.609197538 80.686058999 39.3027537 77.007456631 80.644529032 37.617583589 
75.448814397 80.439358966 37.774542558 76.932943374 80.36230075 36.102622707 75.352518658 80.047311483 36.270779296 
76.999785394 79.623541677 34.756366962 75.370490582 79.314466735 34.911289187 77.090673427 78.720228779 33.523576434 
75.451898688 78.438592778 33.632473822 77.199927065 77.646156926 32.421421817 75.572775726 77.426990058 32.44993195 
77.289506354 76.630085488 31.263961581 75.690658267 76.496575006 31.214518262 77.361954112 75.760289773 30.002225299 
75.807103061 75.646937651 29.920897873 77.420532227 75.011230469 28.654712677 75.928038021 74.878104084 28.591636578 
77.453910838 74.11694741 27.397948903 76.044646753 73.909732489 27.414988706 77.586937015 73.06217537 26.330841282 
76.210010863 72.785116987 26.416834691 77.874815069 71.758004161 25.558458484 76.459871163 71.476491995 25.739649553 
78.286393704 70.304763007 25.287217039 76.809688948 70.00288725 25.497919405 78.727015997 68.837692378 25.113183631 
77.19656104 68.51864839 25.364281724 79.186193588 67.369161069 25.003145869 77.585061383 67.033574537 25.299955212 
79.554040535 65.871551243 25.049674751 77.95955387 65.543512684 25.349107507 79.922097257 64.415559882 25.329236936 
78.364346535 64.083853321 25.647380529 80.294469376 63.006097901 25.823457681 78.789912554 62.715919724 26.181226942 
80.746662793 61.823859456 26.705582886 79.257856019 61.488528477 27.003201031 81.166299825 60.783062194 27.744839513 
79.730120299 60.362476993 27.964027203 81.556833376 59.86870498 28.924562333 80.189099528 59.404352744 29.086888339 
82.122525142 58.996316478 30.063322502 80.699914275 58.50412387 30.243509047 82.673410577 58.203376381 31.256471407 
81.216017179 57.651254167 31.441225422 83.156243841 57.599696545 32.591669594 81.679660234 56.994314283 32.77245174 
83.536928908 57.070268679 33.984844937 82.093547425 56.395685766 34.150793535 83.842710174 56.595288713 35.420534093 
82.396956315 55.922618603 35.594815221 83.961913674 56.133062732 36.885632355 82.670795653 55.431699345 37.035067579 
84.102300859 55.737977446 38.354829457 82.989182872 55.007318462 38.472348988 84.587597824 55.773487743 39.818911892 
83.266727843 54.926017813 39.981607892 84.661025218 55.735349207 41.311123815 83.365598595 54.951911066 41.505711434 
55.367730718 75.218356885 46.775716134 55.493581175 75.617121501 45.288481681 55.325697081 74.650420654 48.153914273 
55.458592359 73.931127489 49.440061883 55.766551086 73.160836868 50.666198578 56.217044857 72.339332759 51.812675581 
56.768841902 71.447947623 52.875412448 57.369928739 70.453295723 53.839137228 57.96548922 69.228426486 54.385701518 
58.467845236 67.902234275 54.80484511 58.89823789 66.525907001 55.187411642 59.366315698 65.141275089 55.514913364 
59.89644595 63.763814948 55.750554923 60.525943869 62.426108067 55.9588775 61.283642339 61.123501372 55.994839256 
62.084683437 59.827416275 55.997308931 62.891792124 58.577208246 55.669973756 63.634655188 57.287066936 55.260550885 
64.208444239 56.059643643 54.524314387 64.682546564 54.831766035 53.71506809 65.182741662 53.571723755 52.795689401 
65.849959663 52.11124004 51.573985623 65.342756879 50.732369468 50.203658786 65.026314628 49.704099429 48.994881456 
[...]
CELL_DATA 1059
FIELD FieldData 6
Stress_X 1 1059 double
-0.0066856713966 -0.0034343490843 -0.001792092924 -0.00030137452995 0.00053951045265 0.0012076692656 0.0020922226831 0.003050818108 0.0027788737789 
0.0021171045955 0.0018228818662 0.0017542253481 0.0015973185655 0.0024735783227 0.0026279194281 0.0015183089999 0.00048408057773 -0.00040953571443 
-0.0010021479102 -0.00084396748571 -0.00024406671582 0.00025292451028 0.00094924983568 0.001861889963 0.0021734593902 0.002415609546 0.0022533347365 
0.001257832977 0.00048886222066 -0.00044593651546 -0.0014698341256 -0.0019450107357 -0.0022491097916 -0.0024648313411 -0.00175402069 -0.0008232446271 
-0.00043491183897 4.5695000154e-05 0.0010436841985 0.0024633149151 0.0050902329385 0.0071282116696 0.0074639632367 0.0069656013511 0.0074941040948 
0.0075560878031 0.0064338347875 0.0045616878197 0.0029491148889 0.0024617204908 0.0026115747169 0.0025514867157 0.0013913373696 -0.0012184112566 
-0.0037771742791 -0.0070413341746 0.0049623055384 0.0023240656592 0.00084223679733 -0.00051755784079 -0.0018787429435 -0.00304226554 -0.0039877169766 
-0.0041445880197 -0.0039367023855 -0.0031990648713 -0.0021666113753 -0.0012981871841 -0.00022966232791 0.00068854750134 0.001744786161 0.0031254689675 
0.0045412494801 0.0062287561595 0.0060502467677 0.0043358043768 0.0038207161706 0.0028248829767 0.0014897347428 0.00019644219719 -4.751306551e-05 
0.0011557163671 0.0016613991465 0.0017164617311 0.0014755531447 0.00025092475698 0.00045285423403 0.00028615709743 0.0019936382305 0.0029220043216 
0.0040134065785 0.0041893804446 0.0044689830393 0.0039570326917 0.0041759647429 0.0037936002482 0.0033498629928 0.0028626797721 0.0025160498917 
0.0021976567805 0.00140312023 0.0006355450023 -0.00025091593852 -0.0014937985688 -0.0021918080747 -0.0028044260107 -0.0018411445199 0.00046508730156 
0.0032545074355 0.0058464105241 0.0096506802365 0.0095128659159 0.0070572518744 0.0062074037269 -0.00264872564 -0.00092913786648 0.00024989264784 
0.0011146167526 0.001553583541 0.0017673250986 0.0031106474344 0.0037364985328 0.0029842762742 0.0025145758409 0.0023540263064 0.0027422814164 
0.003487712238 0.0039140447043 0.0035166055895 0.0024879632983 0.0011544181034 8.6296298832e-05 -0.00056889135158 -0.00043301060214 4.8412875913e-05 
0.00040071550757 0.0013002858032 0.0016115653561 0.0017297760351 0.0010256225942 -0.00011700428877 -0.00091639911989 -0.0014736924786 -0.0017202098388 
-0.0017195740947 -0.0016805983614 -0.0010488200933 0.00012655310275 0.00093571312027 0.0015362172853 0.0024804864079 0.0040898416191 0.0058436477557 
0.0078618144616 0.0086496444419 0.0076677794568 0.0066612418741 0.0055405092426 0.0046033966355 0.0039427792653 0.0037392543163 0.0033841121476 
0.0035483250394 0.0038926911075 0.0041711190715 0.0033302665688 0.00075565214502 -0.0016349734506 -0.0036190166138 -0.0038387330715 0.0029366917443 
0.0022318968549 0.0014912842307 -0.00014539527183 -0.0015972774709 -0.0024846622255 -0.0029020034708 -0.0023130052723 -0.0016224625288 -0.00039117355482 
0.00044193695066 0.00083519506734 0.0013257856481 0.0017933993367 0.0025661764666 0.0033104580361 0.0044574462809 0.0054451613687 0.0050824745558 
0.0047413031571 0.0041762259789 0.0028547700495 0.0011160171125 0.00058664294193 0.0013457762543 0.0022390929516 0.0026196602266 0.0017896664795 
0.0011729473481 0.00058148126118 0.00070142361801 0.0014781977516 0.0027639372274 0.0030483019073 0.0039159907028 0.0042118388228 0.0041138213128 
0.0038584272843 0.0032570252661 0.0020839511417 0.0018010635395 0.0019674680661 0.0019356368575 0.0017377461772 0.00077247712761 -0.00018295706832 
-0.00044853007421 -0.00079611619003 -0.0007198068779 0.000753652188 0.0030117810238 0.006255463697 0.009082258679 0.010984846391 0.0075475936756 
0.0054024187848 0.0057551902719 0.0048593687825 -0.00036770207225 0.00074498675531 0.0014344551601 0.0016516817268 0.0018572587287 0.0026283375919 
0.0033414601348 0.0030931425281 0.0027873157524 0.0028712810017 0.0031320848502 0.004144500941 0.0045759868808 0.0045516341925 0.0036770328879 
0.0025735606905 0.001563327387 0.00079535588156 0.00049328367459 0.00082740938524 0.00092583679361 0.0011841855012 0.00098411238287 0.00027584334021 
-0.00040158690535 -0.0010840377072 -0.0014029904269 -0.0013053591829 -0.00084259436699 -0.00033935951069 0.00046698265942 0.0016125522088 0.0025117420591 
0.0032122356351 0.0043329400942 0.0056967865676 0.0072325263172 0.0081589603797 0.0081861112267 0.0071666468866 0.0060317730531 0.0033867550083 
0.0028573074378 0.0028880287427 0.0029705914203 0.0034591781441 0.0035996637307 0.0040659504011 0.0039705578238 0.0021891209763 0.00034188019345 
-0.0013712084619 -0.0019858693704 -0.0015193315921 0.00069252104731 0.0010061482899 0.0043519525789 0.0046564657241 0.0026305564679 0.0021973734256 
0.00090378202731 -0.00043171120342 -0.0014736687299 -0.0018136244034 -0.0014361110516 8.3139921117e-06 0.00093788461527 0.0013739718124 0.0014011706226 
0.0018245810643 0.0017695119604 0.0020746188238 0.002375802258 0.0030737558845 0.0038662164006 0.0045490236953 0.0047707618214 0.0046189734712 
0.0037582595833 0.0019304385642 0.0011264403583 0.002139943419 0.0030656270683 0.0033507603221 0.0027934610844 0.0019541485235 0.0015747373691 
0.001253384864 0.0019048312679 0.0027317358181 0.0033035289962 0.003974433057 0.0040754638612 0.0037728378084 0.0032803877257 0.0026251422241 
0.0017163520679 0.0015051272931 0.0017630552175 0.0021018318366 0.0019614927005 0.001163739711 0.00068903469946 0.00072099611862 0.00030828113086 
0.00086713355267 0.0023692832328 0.0045999311842 0.007022193633 0.0076345275156 0.0065509178676 0.0049172420986 0.0043077557348 0.0044551636092 
0.0038876566105 0.0029179600533 0.0034162052907 0.0027295397595 0.0020394274034 0.0017635881668 0.0024844640866 0.0032839172054 0.0039224880747 
0.0041597746313 0.0042793238536 0.0042746481486 0.0039710095152 0.0023162190337 0.00025369142531 -0.001322668395 -0.00061040744185 0.00030317454366 
0.0013038404286 0.0017181035364 0.0018943175673 0.0018972739344 0.002244067844 0.0025916330051 0.0025044234935 0.0025077408645 0.002701505553 
0.0031430961099 0.0041024829261 0.0052262428217 0.0052385195158 0.0046848179772 0.0037023646291 0.002956944285 0.0024181527551 0.0019616964273 
0.0019508800469 0.0019456369337 0.0018074578838 0.0013506540563 0.00086971896235 0.0005617546849 0.00024384577409 0.00022593270114 -0.00014073269267 
-0.00035067935823 -0.00079347949941 -0.000783595955 -0.00031835210393 0.00040264573181 0.0010985848494 0.00207354757 0.0030709160492 0.0039664502256 
0.0050912234001 0.0060628205538 0.0070139653981 0.0079401610419 0.008468660526 0.0081078242511 0.0070127951913 0.0059333369136 0.0047710021026 
0.0036851104815 0.0023180600256 0.0022508914117 0.0024963815231 0.001822842285 0.00082507543266 6.5577565692e-05 -0.00020239852893 -4.1915765905e-05 
0.00097147020278 0.0024817408994 0.0023080457468 0.002163335681 0.0021004388109 0.0020320885815 0.0015677786432 0.0016014297726 0.0017510737525 
0.0039175269194 0.0044542574324 0.0047434009612 0.004170384258 0.0025780957658 0.0019398359582 0.0028678581584 0.0035001919605 0.0039567318745 
0.0035253413953 0.0029010865837 0.0023752704728 0.0022038246971 0.0025981399231 0.0032066490967 0.003465019865 0.0038664147723 0.0034936687443 
0.0030172551051 0.0027274577878 0.002165825339 0.0016119738575 0.0015320169041 0.0018556199502 0.0022179656662 0.0022126885597 0.001761507825 
0.0018067242345 0.0017601752188 0.0016322425799 0.002191303065 0.0037515661679 0.0057261479087 0.0066292556003 0.0058572720736 0.0039770910516 
0.0028265023138 0.0031396087725 0.0034329234622 0.0031538342591 0.00259917113 0.0026308845263 0.0029884488322 0.0021854182705 0.0016675762599 
0.0010397044243 0.0011353376321 0.0022266828455 0.0033810141031 0.0044366116636 0.0046393657103 0.0044784005731 0.0044583021663 0.0045729735866 
0.0045797862113 -0.00060100964038 0.00022540806094 0.00092597614275 0.0014930596808 0.002165247919 0.0021281647496 0.0020158914849 0.0020357144531 
0.0019090247806 0.0019822742324 0.0020110865589 0.0023050787859 0.0028803013265 0.0037882926408 0.0050015365705 0.0056984452531 0.0053848586977 
0.0047544497065 0.0039569092914 0.0035281602759 0.0029566432349 0.0026778082829 0.0027607330121 0.0024374597706 0.0021476515103 0.0016271329951 
0.0011564812157 0.00061949470546 -0.00014844321413 -0.00012251129374 -1.7937136363e-05 -6.4898646087e-05 -0.00038375760778 -0.00042588534416 -1.4665862182e-05 
0.00070619251346 0.0017022312386 0.0026996445376 0.0036295531318 0.0043168077245 0.0050566429272 0.0063585340977 0.0072936648503 0.0077830241062 
0.0082119330764 0.0082132257521 0.0077579887584 0.0068715773523 0.0057834731415 0.0049674604088 0.0035827518441 0.0023850055877 0.0012997678714 
0.0011306656525 0.00093856343301 0.00042424365529 0.0028967324179 0.0019352606032 0.0027502856683 0.0033490110654 0.0040228078142 0.0043629831634 
0.0042654396966 0.0031175429467 0.0028449166566 0.0034848125651 0.0040481504984 0.004337510094 0.0041047018021 0.003681267146 0.0033670519479 
0.0031952534337 0.0034955213778 0.0036969417706 0.0035986274015 0.0033422419801 0.0025557177141 0.0024943719618 0.0022413239349 0.0018413513899 
0.0016392108519 0.0016661660047 0.0020018443465 0.0024498130661 0.002511237748 0.002562612528 0.002902476117 0.0031131370924 0.0030902470462 
0.0035488691647 0.0047565009445 0.0062173251063 0.0061555011198 0.0049460357986 0.003157623345 0.001828034292 0.0023066590074 0.0026378349867 
0.0023719032761 0.0021250944119 0.0024301789235 0.002524566371 0.0022909904364 0.0019721130375 0.0017497494118 0.0017637729179 0.001771277748 
0.0022650514729 0.0030175738502 0.0031578319613 0.0026157160755 0.0024375841022 0.0019838616718 0.0013867490925 0.0012097586878 0.0011196699925 
0.0011430280283 0.0015139352763 0.0017963402206 0.0016046855599 0.00064001220744 0.00092125847004 0.001853556023 0.0032732728869 0.0044110319577 
0.004829863552 0.0048069632612 0.0045847222209 0.0047039841302 0.0053608138114 0.0053008315153 0.0042475685477 0.0021174843423 0.00065537448972 
0.00042557177949 0.0011096268427 0.0012568156235 0.0019364920445 0.0023452376481 0.0023051979952 0.0022422964685 0.0019158393843 0.0018418923719 
0.0016556645278 0.0017972557107 0.0026100578252 0.0034831222147 0.004350468982 0.0055584372021 0.0058236140758 0.0054739676416 0.0038833413273 
0.0032889659051 0.0017199077411 0.0017774206353 0.0046037305146 0.0052224448882 0.0031611435115 0.0026287231594 0.0021973315161 0.0016871243715 
0.0010223324643 0.00049895147095 -0.00017663142353 -0.00026426790282 4.0947634261e-05 -0.00039916564128 -0.00029769659159 0.00011357622861 0.00077509181574 
0.0017322563799 0.002898441162 0.0040959147736 0.0050269202329 0.0051642684266 0.0054409722798 0.006795803085 0.0077026570216 0.0079179592431 
0.0078365318477 0.0073266513646 0.0066080549732 0.0061689512804 0.0048961406574 0.003805211978 0.0023932242766 0.0015420524869 0.0006702580722 
0.00061120581813 0.00057683506748 0.0024984329939 0.003093194915 0.0035172891803 0.0040379962884 0.0041719004512 0.0035116556101 0.0035367426462 
0.0041481200606 0.0044267768972 0.0047101117671 0.0045028571039 0.0042687682435 0.0042072050273 0.0041082976386 0.0039530480281 0.0034011953976 
0.0026190744247 0.0019630861934 0.0021803104319 0.0018168792594 0.0016667697346 0.0017022220418 0.0018083992181 0.0021300837398 0.0026674910914 
0.0031244379934 0.0035493208561 0.004193207249 0.0045246933587 0.0046212007292 0.0048138666898 0.0054874885827 0.0063688498922 0.0061013870873 
0.0047316881828 0.0029503102414 0.0014236059505 0.0014210846275 0.0018726520939 0.0017101838021 0.0016349788057 0.0022713483777 0.0024525970221 
0.0026187093463 0.002675564494 0.0030564742628 0.003358732909 0.0034774043597 0.0035255516414 0.0036067303736 0.0034085563384 0.0029104382265 
0.00250897347 0.0020623665769 0.0015839226544 0.0011489879107 0.00094442238333 0.0011690298561 0.0010653740028 0.0015683791135 0.0018709335709 
0.0018712076126 0.0020947968587 0.0041915555485 0.0045056119561 -0.00012201510253 5.1892980991e-05 0.00014404206013 0.00083861668827 0.0015938833822 
0.0026067642029 0.0038070864975 0.0051857042126 0.0056871478446 0.0054809120484 0.0057342820801 0.0068097510375 0.007673941087 0.0076212626882 
0.0072955628857 0.0064108418301 0.0052791587077 0.005176669918 0.00054740800988 0.00155116315 0.0028975731693 0.0041787186638 0.0049977768213 
0.0050621046685 0.0048941983841 0.0049108113162 0.0050490377471 0.0054809222929 0.0049971877597 0.0048103882 0.0041939569637 0.0026084445417 
0.0013634172501 0.0014812826412 0.0016406362411 0.0019951227587 0.0024834328797 0.0024446691386 0.0024435776286 0.0021183744539 0.0018654300366 
0.0018234526506 0.0017824551323 0.0019074925222 0.0015268463176 0.0014657968422 0.0015252957819 0.002292029094 0.0032825306989 0.0036409108434 
0.0030656689778 0.001901481417 0.0011146960314 0.0005802566302 0.002673671348 0.0031227944419 0.0036827132571 0.0039930585772 0.0037053846754 
0.0040215826593 0.0045975879766 0.0046739229001 0.0047414335422 0.0047103147954 0.004619769752 0.0047879149206 0.0044100028463 0.0038588806055 
0.0029892141465 0.0020353563596 0.001660457463 0.0017190737417 0.0015154487919 0.001518926234 0.0017171452055 0.0018749284791 0.0022621829994 
0.0040946183726 0.0047741392627 0.0054773357697 0.0057723117061 0.005787378177 0.0057468130253 0.0058836298995 0.0059009999968 0.0044867531396 
0.0025051606353 0.0012756527867 0.00082748365821 0.0010432628915 0.00090300518787 0.0011400426738 0.0019607075956 0.0034246458672 0.002896774793 
-0.00031768510235 -0.0006029002252 0.0066097816452 0.0066229132935 0.0025067848619 0.0028246075381 0.0030871052295 0.0036699636839 0.0040476159193 
0.0042571485974 0.0041595818475 0.0040148198605 0.0036936635152 0.0030814504717 0.0026430694852 0.0021768040024 0.0017312220298 0.0014154657256 
0.00088645971846 0.0012671984732 0.0013223894639 0.001319936011 0.0016795842675 0.0018852691865 0.0050472789444 0.0057429429144 0.0058142216876 
0.0057916021906 0.005437375512 0.0052667078562 0.0044526960701 0.0039283726364 0.0033023897558 0.003691816004 0.0043690418825 0.0047683794983 
0.0049213278107 0.0025404463522 0.0018460528227 0.0015420287382 0.0012701394735 0.0012121999171 0.0012574933935 0.0017663850449 0.0039258040488 
0.004607073497 0.0040343487635 0.0033232292626 0.0027665405069 0.0021637147292 0.001816648175 0.0014713152777 0.00095006660558 0.0012073855614 
0.0015683458187 0.0017130662454 0.0017655981937 0.0013666781597 0.0013651429908 0.0017865557456 0.0023013781756 0.0038529918529 0.0036966439802 
0.0023383081425 0.0027997370344 0.0032830731943 0.0036159728188 0.0036406025756 0.0041283373721 0.0049451608211 0.0048654335551 0.0026980310213 
0.0025592930615 0.0024155664723 0.002112920396 0.0019799566362 0.0044841747731 0.0030427209567 0.0022286449093 0.0021934909746 0.0024026201572 
0.0012310405727 0.0012752165785 0.0017208078643 0.001866349834 0.0025093064178 0.0036735369358 0.0047072642483 0.0055631618015 0.0053668911569 
0.0051647867076 0.0047190389596 0.0045072264038 0.0049449768849 0.0050234757364 0.0050803078339 0.00044598599197 0.0013647056185 0.0025832699612 
0.0039907717146 0.0049447659403 0.0052744685672 0.0035253425594 0.0050851195119 0.0040760356933 0.0045868335292 0.0052106194198 0.0059515242465 
0.0064432509243 0.0067710871808 0.0066228611395 0.0064145172946 0.0063564926386 0.0064668231644 0.0068356017582 0.0071404143237 0.0065551926382 
0.0053479955532 0.0038732204121 0.0021083785687 0.00099806010257 0.00082426413428 9.3235939858e-05 0.0001964597468 0.00068179162918 0.0051630390808 
0.0049406746402 0.0049019916914 -8.0156707554e-05 7.5193479461e-06 0.0037300873082 -0.00027551705716 -0.00014396138431 0.00020631910593 0.00081503001275 
0.0013577474747 0.0023081151303 0.0033266809769 0.0045708133839 0.0060663484037 0.0062291813083 0.0068725352176 0.0073902844451 0.0073843086138 
0.0067860605195 0.0059432466514 0.0051013329066 0.0027553371619 0.001636109082 0.0010628781747 0.00088698335458 0.0054253474809 0.0062137446366 
0.0068219020031 0.0071736597456 0.0072559835389 0.0069273235276 0.0066298875026 0.0066079217941 0.006641887594 0.0061826207675 -4.4421886969e-07 
0.0047052069567 0.003353806911 0.0020877227653 0.00083484716015 0.00070171884727 0.0020975715015 0.0010262372671 0.0045882575214 0.0035831423011 
0.0026078335941 0.0023738131858 0.0022126629483 0.0019027952803 0.0028766463511 0.0040111639537 0.0043514221907 0.0034577294718 0.0027502921876 
0.0021938402206 0.0017374856398 0.0014493851922 0.0057744993828 0.0062509970739 0.0045593990944 0.0069344202057 0.0051414472982 0.0061889793724 
0.0051658297889 0.0066820047796 0.004902147688 0.0065771602094 0.004042851273 0.0069162580185 0.003080003662 0.0023307052907 0.0017055035569 
0.0015149767278 0.00079580635065 0.0071644778363 0.002357022604 0.0024517697748 0.0030356168281 0.0014076130465 0.0032761530019 0.0017905049026 
0.0041135242209 0.0021103108302 0.0026700294111 0.0035389200784 0.004762053024 0.0044032125734 0.0049312505871 0.0026353201829 0.0024618294556 
0.0028952127323 0.0021062078886 0.0027563385665 0.0032275104895 0.0028715382796 0.0030497643165 0.0028314681258 0.0052234530449 0.0050444942899 
0.0052572796121 0.0051332353614 0.001533853123 0.0008018676308 0.0058175264858 0.0068097012118 
Stress_Y 1 1059 double
-0.0045250845142 -0.002474474255 -0.0011772792786 -0.00034972664434 0.00027715202305 0.0012540854514 0.0019314723322 0.0031353151426 0.0051361639053 
0.0056669926271 0.0047671506181 0.003380574286 0.0024879563134 0.0019170724554 0.00089043163462 0.00029465160333 0.00044655948295 0.0010739758145 
0.0014702440239 0.0021522603929 0.0028870336246 0.0035790356342 0.0039085531607 0.0043477788568 0.0044857808389 0.0049403859302 0.0046120979823 
0.0024716039188 0.0005135879619 -0.00093849760015 -0.0019845706411 -0.0021589389071 -0.0026000477374 -0.003744962858 -0.0036989275832 -0.0028561491054 
-0.0029831430875 -0.0027813178021 -0.0022002588958 -0.00081033760216 0.001504955464 0.0038251320366 0.0064852484502 0.0093417558819 0.011764249764 
0.012606247328 0.011474454775 0.0085667464882 0.0055869724602 0.0038167762104 0.0023553709034 0.001324089244 0.00052582030185 -0.00043851192459 
-0.001883867546 -0.0046423710883 0.0036408763845 0.0023955383804 0.0019747226033 0.0011480280664 0.0002948284673 0.0001242809376 -0.00045501402928 
-0.00064985326026 -0.00067161419429 0.00012388215691 0.0010091097793 0.0022702224087 0.0034388115164 0.0047255270183 0.0060661234893 0.0075258594006 
0.0092603983358 0.0095975818112 0.0072106802836 0.0032249637879 0.0010584826814 -0.00074845046038 -0.0026770993136 -0.0036427341402 -0.0035524892155 
-0.0025416915305 -0.0018932730891 -0.0017605946632 -0.0026600284036 -0.0045649525709 -0.0051030912437 -0.0041411947459 2.8401256714e-05 -0.0010167630389 
0.0014797509648 0.0043236110359 0.0068962136284 0.0077369008213 0.0072147534229 0.0059864134528 0.005911485292 0.0056836283766 0.005022322759 
0.0041069453582 0.0028762982693 0.0016165170819 0.00057769700652 -0.00053525657859 -0.00050764071057 -0.00066777662141 -0.00049128988758 0.00024245453824 
0.00090695498511 0.0011804434471 0.0032136063091 0.0033282241784 0.0025442354381 0.0034182420932 0.0024764861446 0.0024488738272 0.0023473803885 
0.0027159997262 0.0033015189692 0.0041205128655 0.006438979879 0.0082051791251 0.0086937751621 0.0082870926708 0.0072737713344 0.0062994174659 
0.0053566489369 0.0050284522586 0.0052859047428 0.0059709944762 0.0060470998287 0.0061856429093 0.0061411131173 0.0064139850438 0.0063790781423 
0.0052617774345 0.0041723004542 0.0030385295395 0.0029961583205 0.003085358534 0.0024611866102 0.0020182237495 0.0019949830603 0.0022229766473 
0.0024440346751 0.0025930285919 0.0029524059501 0.0030752371531 0.0030089658685 0.0036149376538 0.0046215001494 0.0059128729627 0.006991145201 
0.0082238521427 0.0094547700137 0.010075222701 0.010508305393 0.010795854963 0.011392277665 0.011701367795 0.011418427341 0.0096646314487 