# vtk DataFile Version 5.1
vtk output
ASCII
DATASET POLYDATA
POINTS 1050 double
100.36876471 64.071023645 51.782787585 100.96184924 64.832751443 53.122829857 99.364759382 64.534457147 53.510575805 
98.98516768 63.697894943 52.111217749 101.34349389 65.655425347 54.491714532 99.742827411 65.388057768 54.909917802 
101.56478462 66.530511375 55.876041746 100.10265951 66.215710532 56.332897911 102.12564476 67.475241628 57.122267047 
100.48931853 67.315701969 57.516908066 102.52513128 68.63996658 58.217783323 100.84547539 68.487109066 58.644047881 
102.83193402 69.912538378 59.239001632 101.15243152 69.717152546 59.731498369 102.99413811 71.247669294 60.214333431 
101.36441082 71.063810129 60.691270183 103.13869651 72.677377741 61.025733134 101.54725869 72.473083477 61.561461951 
103.26527027 74.20348037 61.670051924 101.71555788 73.939775525 62.334658325 103.33415845 75.791259235 62.149909151 
101.85962285 75.45721653 63.010826821 103.46319452 77.289982653 62.782855525 101.96443922 76.990640395 63.62123645 
103.74074546 78.575127196 63.798496127 102.10349373 78.476660873 64.311061953 104.0182964 79.860271739 64.814136728 
102.23577126 79.947955881 64.998406236 103.84257108 81.481953836 65.054105025 102.19063814 81.553194615 65.334629298 
103.64624023 83.118934631 65.258811951 102.10161029 83.242623726 65.415305622 103.38762053 84.237919367 64.058334604 
101.88306815 84.52428419 64.508936705 103.12900082 85.356904102 62.857857257 101.64825776 85.775726141 63.450618014 
102.80578142 86.488994979 61.685782803 101.35179409 86.895061495 62.248534709 102.49020646 87.562966929 60.474613976 
101.07883876 87.91231063 60.939792191 102.26172175 88.18630792 58.951657117 100.77876084 88.62741212 59.454372169 
102.02377566 88.786831341 57.421515332 100.4925576 89.242899191 57.909834797 101.76329424 89.333007288 55.874260305 
100.19236008 89.755457428 56.332350196 101.52872327 89.92670665 54.340864846 99.895366119 90.197986846 54.743127548 
101.2614706 90.41341335 52.797422111 99.577426452 90.518394081 53.147642364 100.82861899 90.418943507 51.193437774 
99.184094187 90.532222796 51.541994861 100.57223077 90.8316266 49.628711719 98.974948663 91.01424232 49.905294195 
100.35681876 91.182030046 48.059764954 98.801477393 91.414141877 48.290412408 100.07097175 90.951153829 46.439535181 
98.52540279 91.331740153 46.668451066 99.832493808 90.656665799 44.822298677 98.22059437 91.038802974 45.056750518 
99.507204209 90.31610241 43.233128318 97.891441887 90.616677277 43.479441857 99.093863464 89.884576296 41.695351978 
97.579208929 90.075098086 41.934387886 98.940583445 88.891375208 40.372395559 97.269292723 89.203833383 40.563805488 
98.507716441 88.078818417 39.00182516 96.919515849 88.296682455 39.22099535 98.096720961 87.138630292 37.732873031 
96.596977291 87.289471269 37.968147619 97.863724891 85.893057417 36.658434621 96.387688121 86.156967431 36.760301501 
97.890337909 84.788168735 35.418534499 96.33057105 84.978124364 35.605831464 97.879445817 83.541538992 34.359488546 
96.297627948 83.616492953 34.707956605 97.807099363 82.077324829 33.577823831 96.222827275 82.185680465 33.900860036 
97.752636008 80.525414813 32.996938697 96.134314297 80.641306618 33.339169423 97.695156635 78.941648636 32.530579446 
96.022989974 79.045928665 32.969848224 97.590279404 77.283754023 32.507275583 95.93359939 77.376378891 32.957337423 
97.505484665 75.637064897 32.618159245 95.831892111 75.698650141 33.020101772 97.452204526 74.007960063 32.939617668 
95.771369353 74.054220124 33.323917393 97.395946266 72.393682453 33.32496423 95.720018436 72.423081752 33.70715124 
97.337886322 70.788374926 33.748961442 95.70530174 70.82909915 34.189913034 97.475855075 69.395063941 34.620076265 
95.784004379 69.320484356 34.877968966 97.617217115 68.061037967 35.593101731 95.900144796 67.83855179 35.659560085 
97.637169877 66.866300665 36.747381384 96.019133086 66.599577354 36.771484708 97.771703695 65.819475149 38.009810482 
96.218244349 65.43579472 37.97821986 98.035008035 64.938878489 39.393782013 96.463534983 64.387312379 39.317180169 
98.198031146 64.102191477 40.818582745 96.65732322 63.508333944 40.791619293 98.38618093 63.361274633 42.271478329 
96.909312677 62.768187057 42.432074095 98.902023108 63.167309956 43.838782193 97.391291639 62.521067312 44.125506591 
99.249685199 63.032939359 45.447302343 97.761697602 62.448465661 45.754696984 99.427358691 62.958803684 47.097481994 
98.037861635 62.550705221 47.403884747 99.92495496 63.146065135 48.665603506 98.380214756 62.765634374 49.006509479 
100.28035387 63.50141714 50.224619172 98.710755793 63.121355752 50.584112747 70.2918396 84.655578613 45.242485046 
70.283124175 86.061272407 46.173826886 71.872004568 85.897504025 46.085273317 71.832755197 84.612025996 45.100008412 
70.467448669 87.16693363 47.340476765 72.065533726 86.980529981 47.173260051 70.890533568 87.901501151 48.798166151 
72.452030898 87.867678383 48.398513132 71.415071395 88.084096598 50.371050507 72.94109982 88.160709236 49.947780314 
71.926199475 88.124004594 51.970549618 73.41550867 88.258264168 51.550141925 72.169623241 87.831166282 53.613242291 
73.784067282 88.072501702 53.188145344 72.462965392 87.541517318 55.2469703 74.141906139 87.776421697 54.826949091 
72.842043015 87.257346101 56.865301384 74.522694034 87.358838113 56.43761493 73.221695393 86.673617715 58.393510611 
74.877711306 86.684484784 57.967320454 73.537359652 86.01963643 59.912163249 75.144971796 85.960889502 59.488525097 
73.705073773 85.367073438 61.457958234 75.351834486 85.184205911 60.972751092 73.996437288 84.435610231 62.825490768 
75.558599459 84.267740265 62.355066486 74.162063108 83.344527625 64.087310291 75.71476776 83.208701363 63.626285567 
74.216474894 82.11699109 65.236514756 75.833065599 81.997278245 64.756995415 74.306840037 80.759190383 66.231498537 
75.947185315 80.635506737 65.699815507 74.489138192 79.301399654 67.059183378 76.073849522 79.189507922 66.476222626 
74.699619643 77.803845905 67.804209905 76.198236285 77.727264919 67.190042397 74.766647597 76.279855316 68.516664746 
76.281604184 76.237261862 67.812754503 74.781065917 74.687238739 69.02515062 76.318701212 74.684158846 68.223708709 
74.802090319 73.021605542 69.262366525 76.35403857 73.099290576 68.455363675 74.828596021 71.335748247 69.237241793 
76.429006301 71.508456331 68.547713766 74.95210458 69.66983812 69.033931511 76.504996262 69.914159829 68.360909432 
75.069953824 68.031221243 68.682331551 76.585282071 68.363702464 67.936522013 75.127079629 66.432894013 68.147976492 
76.669634379 66.867276129 67.366785876 75.183912134 65.024699271 67.228534799 76.684563872 65.481044375 66.501118031 
75.147421144 63.74451724 66.152249759 76.628390315 64.217758366 65.449413002 75.005172415 62.595606974 64.926191391 
76.46918342 63.132322018 64.239520737 74.68978777 61.818319065 63.464452822 76.161449211 62.297980564 62.847558934 
74.230019874 61.320850519 61.954080856 75.742754179 61.686652122 61.365624921 73.619949256 61.114139653 60.395705714 
75.230649571 61.402924486 59.853161173 73.132259993 61.445473934 58.821676116 74.695977446 61.563371524 58.291639239 
72.65588946 61.781714254 57.239867804 74.198227494 61.804923775 56.740286596 72.185962685 62.073318459 55.646953591 
73.711511124 62.022886939 55.190508054 71.660529639 62.60114088 54.134084717 73.280352728 62.611365314 53.716280748 
71.395691088 63.464792048 52.738833757 72.958842759 63.392284202 52.311080038 71.144193468 64.433551061 51.387083005 
72.713268077 64.350976454 50.977984006 70.865096407 65.389993436 50.040085448 72.489292783 65.286626555 49.610496367 
70.866117565 66.465006146 48.747420759 72.378990595 66.451350626 48.422764601 70.550430414 67.793733854 47.758343955 
72.215486666 67.719928104 47.33701696 70.560909643 69.198190347 46.828575885 72.089448877 69.025838278 46.277639979 
70.288961542 70.452565966 45.748663846 71.920870437 70.355993097 45.251090601 70.212136451 71.845192481 44.854373722 
71.784629832 71.716304259 44.29266452 70.325036212 73.391810846 44.213213294 71.782293059 73.220653301 43.552726261 
70.467120932 75.020999028 43.802109386 71.879135478 74.85948713 43.129559464 70.436989912 76.685755312 43.537569554 
71.995960284 76.570871741 43.000431775 70.416757301 78.36084992 43.362531241 72.058809759 78.306541248 42.951652081 
70.407949135 80.043937923 43.259643847 72.004206912 80.054714347 43.046670596 70.268461865 81.64578505 43.761308465 
71.907244175 81.687522301 43.511838385 70.225855133 83.184539275 44.420817268 71.816017429 83.205751615 44.220395305 
98.188251535 65.006259384 55.356506461 97.806124471 64.14847812 53.917447639 98.539798033 65.965965347 56.717938036 
98.888860517 67.062331883 57.958734015 99.220122849 68.241324186 59.12906235 99.524271199 69.469728684 60.258531467 
99.753301336 70.814654352 61.251143235 99.958171354 72.224108217 62.160326503 100.13178435 73.69956147 62.967026796 
100.30597229 75.194969585 63.728550733 100.46555524 76.721095225 64.45015265 100.56134084 78.283881895 65.049106329 
100.61935845 79.889077289 65.563420254 100.5943221 81.54414598 65.846016979 100.49100682 83.298519527 65.753326032 
100.34752609 84.764630534 65.05232164 100.17547844 86.214462936 64.110156703 99.889251358 87.339067932 62.865288295 
99.602390624 88.349928034 61.491400957 99.332536745 89.20759131 60.026491045 98.982846799 89.806700464 58.425951484 
98.617748203 90.234998272 56.790628084 98.311436741 90.696719897 55.168188032 97.975548455 90.965321513 53.510197611 
97.611539785 90.994577332 51.85174006 97.418704272 91.474755208 50.205505849 97.235421023 91.824715779 48.545872771 
97.048563056 91.976933653 46.874392086 96.763371967 91.779191161 45.185149321 96.433130916 91.369102629 43.530279625 
96.088837339 90.758108908 41.96215127 95.707881469 89.843119416 40.544283285 95.340526818 88.856939239 39.188539739 
95.057128844 87.816251654 37.862873636 94.879541883 86.681341177 36.606545596 94.762861903 85.346784783 35.560418749 
[...]
POINT_DATA 1050
FIELD FieldData 21
Circ_Strain_Pt 1 1050 double
0.99941781147 0.99970301478 0.99748464211 0.99833228626 0.99880094009 0.99667482446 0.997180341 0.99676100743 0.99631669184 
0.99828799304 0.99725530087 0.99875012417 0.99871280771 0.99874939565 0.99803144952 0.99828848533 0.9965630974 0.99834329998 
0.99429263472 0.99827949267 0.97993264155 0.99747238948 0.96591160109 0.99306428879 0.95585696716 0.99167247995 0.94580231003 
0.98810559735 0.90118731481 0.9549855338 0.85500123704 0.90869677622 0.91287410522 0.93985398885 0.97074678549 0.98644886578 
0.98291081745 0.99228996928 0.99184679425 0.99574215594 0.99629875231 0.99757081169 0.99804220067 0.99830589477 0.99333445079 
0.99760223465 0.98441799891 0.99272972427 0.97504639139 0.98694249328 0.97083598815 0.97857699585 0.97487449499 0.98081601446 
0.98368450504 0.98726159654 0.99682844423 0.99787172829 0.99506676163 0.99882618539 0.99065130525 0.99760392605 0.98657471509 
0.99569384973 0.98671083763 0.99815832293 0.986107351 0.99777975246 0.98700157575 0.99662078622 0.9907817896 0.99520038026 
0.99240556361 0.99507176097 0.99422721572 0.99541279676 0.99638683238 0.99328545057 0.99593403602 0.9933504299 0.99526868288 
0.99610516613 0.99723486878 0.99773539537 0.99734437041 0.99879309319 0.9945402568 0.99883890597 0.99298375813 0.99807351573 
0.99218203501 0.99670775631 0.99520572433 0.99671844792 0.99820131834 0.99727374565 0.99836879581 0.99782965683 0.99776331774 
0.99826603936 0.99628916225 0.99829285819 0.99533932694 0.99676384577 0.994950266 0.99487143564 0.99732363638 0.99694834584 
0.99815353658 0.99793683543 0.99742336843 0.99800738295 0.99657920586 0.9969487137 0.99701558414 0.99668554252 0.99806003546 
0.99226598276 0.99503878479 0.99605125432 0.98826019648 0.99359800852 0.98646621808 0.99222197744 0.98858955619 0.99311417611 
0.99143674192 0.99489584091 0.99424922016 0.99655744051 0.99621227617 0.99771529342 0.99671643854 0.99830688893 0.99704897869 
0.99852095481 0.99734731991 0.99867796976 0.99766043336 0.99883913618 0.99690091285 0.9990777705 0.99653618543 0.99816311944 
0.99687634377 0.99800273709 0.99791719409 0.99838465476 0.99945721348 0.99862994258 0.99989460669 0.9990928901 0.9975422745 
0.99732509083 0.99627372995 0.99758020191 0.99737713418 0.99840570282 0.9982972296 0.99831668397 0.99862813872 0.99801163365 
0.9986170191 0.99758027023 0.99827664929 0.99674540885 0.99755272512 0.9966362807 0.99699867177 0.99716950398 0.99666505327 
0.99682679324 0.99455433703 0.99504165832 0.99213898343 0.99379028154 0.98942739066 0.99273565485 0.99165421799 0.99301536581 
0.99458124818 0.99464202677 0.99815727774 0.99604256605 0.99468143991 0.99371477379 0.99425202609 0.99427170809 0.99588628329 
0.99596336911 0.99802160828 0.99602465545 0.9983317042 0.99777755529 0.99806468018 0.9986311458 0.99373985465 0.99698207717 
0.99005551943 0.99368709758 0.99185758423 0.99468585239 0.99619690323 0.99736527971 0.99821825651 0.99709448628 0.99889996233 
0.99732660361 0.9972432655 0.99670579145 0.99365596728 0.99613510844 0.99406891585 0.99520513519 0.9955273868 0.99601564866 
0.99815093701 0.99851915906 0.9980640534 0.99939973482 0.99920010325 0.99860807828 0.99844662957 0.99876310005 0.99906091619 
0.99804296444 0.99712374919 0.99365672094 0.98723068244 0.97184451863 0.95904323479 0.96399656213 0.98204447483 0.99502802189 
0.99659518512 0.99618946299 0.9963540902 0.99682447771 0.99434202777 0.98799240539 0.98442760877 0.98554245083 0.99165103147 
0.99532535561 0.99736139645 0.99782220235 0.99720008612 0.99800855827 0.99906949159 0.99940553756 0.99739151278 0.99721452515 
0.99717187296 0.99408249107 0.99286414819 0.99381489102 0.99692813816 0.99883402799 0.99923106358 0.99841738713 0.99645357114 
0.99609411798 0.99654757369 0.99656208056 0.99709461461 0.99756033567 0.99540237697 0.9937908373 0.99470431684 0.9968029001 
0.99891079652 0.997896822 0.99802974754 0.99834211916 0.98707997288 0.98779002944 0.99010985381 0.99377152905 0.99637317804 
0.99592678003 0.99612414245 0.99787510694 0.9983073404 0.99731813433 0.99753450142 0.99546099614 0.99376985948 0.99515558012 
0.99665916418 0.99606453473 0.9959486577 0.99631291616 0.99706474493 0.99709697225 0.99663272291 0.99704976842 0.99735206229 
0.99711758506 0.99675102439 0.9969625184 0.99622323778 0.99547531547 0.99566544188 0.99685378359 0.99746424065 0.99777689689 
0.99614534968 0.9944448806 0.99438698337 0.99567394277 0.997277652 0.99851818522 0.99907147432 0.99629477175 0.99215023759 
0.99074421102 0.99640816529 0.99756348236 0.99816434049 0.99897902226 0.99859997325 0.99796246862 0.99588328855 0.99204072587 
0.99235864308 0.99077806337 0.99629085119 0.99663104907 0.99432735969 0.99513103381 0.9982016344 0.99889238616 0.99780588581 
0.99840449754 0.99603417162 0.99388012114 0.99488861636 0.99466344895 0.99427144895 0.99529748801 0.99742540488 0.99880109574 
0.99829066995 0.99705589443 0.99725053251 0.99736371197 0.99773552762 0.99747970212 0.9971044531 0.99709869803 0.99696139407 
0.99726800667 0.99707988837 0.9975463546 0.99724569438 0.99548600663 0.99400617506 0.99319190376 0.99378137997 0.99642634207 
0.99825919192 0.99922731732 0.99921589399 0.99480564928 0.99120151714 0.99477707769 0.9975912953 0.99821010915 0.99879976142 
0.99870749274 0.99832832443 0.9968350002 0.99420720864 0.99009602533 0.99883219943 0.99744504966 0.99945527091 0.99964974828 
0.99927691839 0.99688214433 0.99649383834 0.99798132604 0.9987472152 0.99829674085 0.99783536002 0.99606003833 0.99253177001 
0.987899862 0.98656128471 0.98804356074 0.99249400362 0.99410340498 0.99460238246 0.99558979591 0.99627687424 0.99567835123 
0.99172539035 0.98747083052 0.99070379258 0.99242068879 0.9917115517 0.9939715332 0.99580628519 0.99669219751 0.99792753493 
0.99944557246 0.99662350001 0.99493087104 0.994442801 0.99452974626 0.99293821234 0.99290309046 0.99632562168 0.99868464426 
0.99866697258 0.99844579911 0.99687770794 0.99687190842 0.99641633312 0.996003248 0.99624214453 0.99655462457 0.99723054694 
0.99709489959 0.99516605003 0.99751220976 0.99625194268 0.99730837152 0.99741180993 0.99758383245 0.99819283578 0.99742913833 
0.9952261944 0.99573521022 0.99350055902 0.99171032877 0.99527205363 0.99618596613 0.99677595741 0.9978859846 0.99885469174 
0.99752642526 0.99769909544 0.99810497314 0.99858732849 0.99899732371 0.99922364224 0.99692793166 0.9958831444 0.99594027922 
0.99696873796 0.99817132121 0.99750317242 0.99725576821 0.99770383449 0.99776024249 0.99789075988 0.9985347962 0.9986828014 
0.99743375277 0.99604740878 0.99539006412 0.99521140278 0.99559158772 0.99360534045 0.99187981963 0.99222328354 0.99578482044 
0.99643594415 0.99664906588 0.99772910869 0.99886564964 0.99885987226 0.99567154732 0.99573853328 0.99805568887 0.99869924017 
0.99870017532 0.99870192252 0.99574300782 0.99879283764 0.99299784272 0.9907131749 0.99081036392 0.99854029269 0.99790332252 
0.99635758739 0.99695571367 0.9959920059 0.99632933057 0.99586450049 0.99605632092 0.99619533842 0.99618126996 0.9961867404 
0.9970863664 0.99859797386 0.99946437039 0.99908725969 0.99608847884 0.99526730539 0.99590783308 0.99837024009 0.99894970229 
0.9982425115 0.997077681 0.99664403188 0.99116249506 0.9865016887 0.98432374645 0.98785725043 0.99467031418 0.99496257131 
0.99403927046 0.99460743308 0.99583202871 0.99653156785 0.99641524363 0.99560235355 0.99351226536 0.9880556964 0.98489877473 
0.99129047236 0.99847179699 0.99908877198 0.99945301845 0.99947903386 0.99808882349 0.99601500261 0.99497635636 0.99514675205 
0.99298808075 0.99287735283 0.99605237391 0.99687213571 0.99649045478 0.99597907197 0.99732743063 0.99606254904 0.99340717786 
0.99268245184 0.99458023049 0.99735637566 0.99713170822 0.99649042491 0.99686059294 0.99816493053 0.99661668087 0.99342131802 
0.9965531938 0.99470572795 0.99746520168 0.99631470289 0.99397097353 0.99029976954 0.98793711906 0.99123219123 0.99352705412 
0.99394826549 0.99372684984 0.9940931568 0.99532099268 0.99347016257 0.99469196379 0.99636652236 0.99837078133 0.9985460305 
0.99808106869 0.99676226074 0.99740280759 0.99739062711 0.99608401563 0.99389853954 0.99272079034 0.99567932775 0.99820412534 
0.99880133397 0.99834100653 0.99823550226 0.99821327423 0.99840442023 0.99907008401 0.99884738669 0.99848870072 0.99679516648 
0.99541462923 0.99433699247 0.99192236959 0.99106882917 0.99134803705 0.99370172266 0.99622023539 0.99492363863 0.99483168627 
0.99694948621 0.99816830722 0.99901167419 0.99873154763 0.99787614881 0.99788229693 0.99811168566 0.99847786546 0.99838609036 
0.9961857902 0.99417526048 0.99157825454 0.99416525992 0.99525902129 0.99874594551 0.99742039682 0.99106911056 0.98548117928 
0.99338977152 0.99301161653 0.99356035247 0.99606944663 0.99788684179 0.9985665705 0.99882501584 0.99847395691 0.99608409032 
0.99661945296 0.99832942991 0.9986280745 0.99793969832 0.99719298382 0.99705753789 0.99635367609 0.9902815883 0.98456034546 
0.98704981787 0.99173620627 0.99632102981 0.99550754169 0.99347684912 0.99386002496 0.99364652375 0.99360883019 0.99408894223 
0.99371316823 0.98607058667 0.98370087351 0.99065841229 0.9972113298 0.99861861862 0.99919305026 0.99935525909 0.99952939621 
0.99675233782 0.99412985489 0.99420128409 0.99448410201 0.99547691882 0.99653587232 0.99664201438 0.99541485398 0.99427383637 
0.99355420846 0.99492837754 0.99646724977 0.99515959235 0.99612238221 0.99741565297 0.99810370769 0.99791589386 0.9986844886 
0.99832822194 0.99828173473 0.99903159877 0.99794805699 0.99739464208 0.97886562216 0.99549574947 0.99158940915 0.99242806757 
0.99349994215 0.99510819073 0.99471229659 0.99424223495 0.99526293965 0.99480550485 0.99567104909 0.99593004009 0.99738747887 
0.99362972083 0.99361126962 0.99422376452 0.9977928546 0.99876942948 0.99803499351 0.99660073735 0.99579158948 0.99607658969 
0.99611700435 0.99337311616 0.99192230433 0.99240262546 0.99572005211 0.99850014806 0.99896101296 0.99877134146 0.99889513867 
0.99941407872 0.99884754707 0.99821943001 0.99746402257 0.99776451821 0.99567540905 0.99110776949 0.98702489535 0.98657631393 
0.99198663883 0.99641752906 0.99691646925 0.99771517201 0.99765478112 0.99801685011 0.99778606457 0.99724302063 0.99605413283 
0.99734064763 0.99919565583 0.99865136462 0.99869701744 0.99899693336 0.9956810979 0.98284130804 0.98415898029 0.97026743114 
0.9892323649 0.99031908266 0.99688447297 0.99669228695 0.94973204908 0.95183908181 0.99124601132 0.99552024813 0.99705369433 
0.99730039803 0.99845745106 0.99907472407 0.99819233813 0.99734616839 0.99708093587 0.99795789696 0.99832248135 0.99786245016 
0.99716333475 0.99768873095 0.99522167558 0.99044327328 0.98707149206 0.99138064062 0.99756292749 0.99703006272 0.99621805947 
0.99604209796 0.99596135052 0.99587346123 0.99403783682 0.99443617348 0.99505503424 0.99154387337 0.98976336878 0.99185637242 
0.9971822696 0.99858525823 0.99792985903 0.99784413991 0.99735230362 0.99159026391 0.99388652995 0.99397372564 0.99428908829 
0.99462092277 0.99642254725 0.99849630302 0.99696335137 0.99490101762 0.99439221791 0.99459263823 0.99633609732 0.99714617406 
0.99817623004 0.99875676863 0.99873655305 0.99840469156 0.99844385314 0.99872632429 0.99854279713 0.99607596203 0.99732332996 
0.97533379623 0.99777421751 0.99853869587 0.99884916849 0.99871095521 0.99770282474 0.9947077842 0.99611199605 0.99002235536 
0.96451568157 0.94651854708 0.97807054601 0.99472700535 0.99739236424 0.99739778039 0.99792949779 0.99875088633 0.99926860055 
0.99916452684 0.99806094571 0.997726416 0.99754461123 0.9969874462 0.9968776661 0.99693743295 0.99743037532 0.99563604619 
0.99124902347 0.99056591743 0.99355121675 0.99617481891 0.99716055662 0.99730490013 0.99757571131 0.99770037884 0.99822125501 
0.99882932961 0.99881697378 0.99787181465 0.99475622357 0.99378926303 0.99616877293 0.99877977517 0.99778561447 0.99679845776 
0.99606301608 0.99709115582 0.99375545746 0.9869308071 0.98708744498 0.9890948018 0.99246366436 0.99424884267 0.9959874381 
0.99819434827 0.99872565844 0.99681577321 0.9955394728 0.99550176717 0.99722513478 0.99773697826 0.98194650851 0.97044006268 
0.99607370168 0.99005762029 0.99148691935 0.99313925218 0.995264003 0.99620045834 0.99587136247 0.99576384503 0.99627461204 
0.99669186925 0.99559171767 0.99619301095 0.99603773651 0.99623994831 0.99458768029 0.99268482354 0.99560142641 0.99770177524 
0.99811258552 0.99781065023 0.99651393162 0.99798144623 0.9988346034 0.99864233596 0.99694977782 0.99774415377 0.99747673913 
0.99525003365 0.99268418995 0.99199381323 0.99444162985 0.99729393689 0.9983753165 0.99853810756 0.99886983863 0.99912294324 
0.99940736728 0.99912663841 0.99905313917 0.9988325665 0.99827816577 0.99242591927 0.98639473994 0.98639376132 0.99343378814 
0.99720633256 0.99917578535 0.99916359865 0.99917554276 0.99712171758 0.99807795204 0.9960576679 0.99701920395 0.9980729052 
0.99942391245 0.99914046422 0.9968189585 0.99565777373 0.99426307786 0.98349111396 0.96011134527 0.94680012162 0.97788571363 
0.98774353924 0.99753746286 0.99839226897 0.99846186979 0.99893170622 0.99735828222 0.99919558305 0.99878462568 0.99863354198 
0.99773660879 0.99713363477 0.99707213858 0.99610617075 0.99448284178 0.99367936248 0.99369645382 0.99662133792 0.99707869235 
0.99702677856 0.99843381689 0.99875307376 0.99881561098 0.99902671485 0.99925987766 0.9992470614 0.99865646885 0.99524551757 
0.97851345881 0.96991854689 0.98464809642 0.99255848219 0.99764596068 0.98559632357 0.99181854447 0.99532022771 0.99524763892 
0.99564975267 0.99629156748 0.99679230066 0.99724434354 0.99660349996 0.99511646883 0.99570118886 0.99451141628 0.99611045376 
0.99764563907 0.9994612365 0.99909653335 0.99843435116 0.9963781453 0.99790329375 0.99616156948 0.99686090545 0.99763857686 
0.99852640257 0.99941956802 0.9987236796 0.99644970856 0.98131478084 0.9542587902 0.95624627491 0.94924338811 0.968091821 
0.95846837637 0.98269286307 0.96048458165 0.97988795527 0.99606953383 0.99637610092 0.99767516239 0.99915631847 0.99972557971 
0.99982583254 0.99937240188 0.99843411173 0.99812201938 0.99809403556 0.99673503483 0.99581544265 0.9972844361 0.99627653676 
0.99466846328 0.99391147748 0.99466208832 0.99691216023 0.99758290255 0.99715958453 0.99694450694 0.99687174176 0.9992196876 
0.99941432915 0.99814186816 0.9950200286 0.99464626253 0.99630496981 0.99766445875 0.99823303001 0.99783971805 0.99652620807 
0.99652005688 0.99701700948 0.97761996142 0.97426653453 0.98523897077 0.99462172673 0.99572263881 0.99665996672 0.99764406768 
0.99835489929 0.9987188443 0.9982708973 0.99716920364 0.99616019368 0.99815677703 0.99721739234 0.99186481293 0.99672490305 
0.99636218355 0.996253615 0.9965798212 0.9940488555 0.99520436537 0.99593231106 0.99634461811 0.99651761197 0.99653598577 
0.9975205888 0.99844659993 0.99773473176 0.99738208299 0.99903634482 0.99878345807 
Circumferential 3 1050 double
0.16893854415 0.41824581438 0.89178092255 0.16860450195 0.4739092786 0.8634131686 0.19199407718 0.48634114698 0.85175820906 
0.18119410283 0.43603723335 0.87988322306 0.17199456469 0.52292111712 0.83403232922 0.19186019195 0.53358487911 0.82250599281 
0.17043273878 0.57661814263 0.79713075449 0.16932581646 0.59236522695 0.78697797615 0.13773492944 0.66556127617 0.73017065742 
0.13016383118 0.67560296854 0.7226802743 0.11114262103 0.73392235706 0.66648505877 0.10128072227 0.72784206593 0.6765794572 
0.088387558581 0.79268493581 0.60160078632 0.072604035317 0.76813043595 0.63518073941 0.073507318562 0.84916747657 0.51725841173 
0.04630736264 0.81849261623 0.56951123621 0.062314914355 0.89327826079 0.44178791893 0.033038071639 0.86127354132 0.50650553658 
0.05488118214 0.924779651 0.3753597196 0.02886642184 0.89221428586 0.44877647456 0.1413870279 0.94623232687 0.26519463644 
0.054822345221 0.90619570016 0.41874695501 0.15957073538 0.93423633266 0.2436503513 0.084831068767 0.90306235137 0.41721460367 
0.0014974322942 0.85085659552 0.42995082204 0.027160074226 0.91215148812 0.39901370006 -0.15657585448 0.76747668938 0.61625155368 
-0.10258767945 0.93143077266 0.33629686392 -0.12021941853 0.87470952742 0.37500179706 -0.10987443673 0.95844895099 0.24600621612 
-0.075024497116 0.99060751343 0.11431600829 -0.10072589401 0.95866092883 0.12290605 -0.19923267578 0.85093697945 -0.24753750286 
-0.20717423541 0.84865534402 -0.25972836524 -0.32344077556 0.71126655348 -0.60939081893 -0.30354505741 0.72479601031 -0.61670650005 
-0.33032689393 0.6041442209 -0.71406560646 -0.31903911055 0.6293194449 -0.7000618409 -0.32982226959 0.50243816473 -0.79832712019 
-0.33475178579 0.53338538864 -0.77446638239 -0.32465716901 0.42778705298 -0.84013294134 -0.34852334667 0.44797845233 -0.81938327299 
-0.31071911173 0.37428850874 -0.87339932933 -0.33997323871 0.3757090612 -0.86045390778 -0.27588539991 0.37117169534 -0.88632627513 
-0.30448020649 0.3245649648 -0.89463902481 -0.27110800364 0.25819255424 -0.91904228841 -0.27283941259 0.20761123038 -0.93268408899 
-0.27680806781 0.14652970437 -0.94891341582 -0.24496332783 0.10442716848 -0.96354607574 -0.27290555122 0.21936628052 -0.93571631996 
-0.23214723591 0.21701734821 -0.94619637163 -0.24193276761 0.14004700011 -0.9542138251 -0.21768080965 0.18932174269 -0.9548085903 
-0.20203058222 -0.0011986552066 -0.97548810018 -0.20625724011 0.070871417256 -0.97261230534 -0.1658745975 -0.15272691606 -0.97187367479 
-0.20064070995 -0.10167983639 -0.97148322049 -0.13623311385 -0.2088962834 -0.9678385008 -0.1802414816 -0.22272617555 -0.95475453581 
-0.11957277478 -0.30979000874 -0.93557087846 -0.15778553339 -0.34618224515 -0.91990173616 -0.11505622248 -0.47198388679 -0.87389882013 
-0.13500972853 -0.4855584506 -0.86339767814 -0.091523412133 -0.51520590463 -0.85173734025 -0.11248500739 -0.55776655968 -0.82083898496 
-0.10997845791 -0.58726997308 -0.79845019064 -0.098130633168 -0.61341034198 -0.78140596595 -0.10614884273 -0.65715818817 -0.74416658436 
-0.061455475416 -0.67392746033 -0.73515591729 -0.04371818364 -0.70881893582 -0.70394364454 -0.027852389421 -0.72821132606 -0.68286535001 
-0.052444396733 -0.77778396006 -0.62065528063 -0.038141451462 -0.78623269996 -0.61246226349 -0.036949501255 -0.84602143309 -0.52198459301 
-0.033063454631 -0.86149975238 -0.50380763107 0.016549066715 -0.91285267499 -0.40071873168 0.0073632209966 -0.91915332061 -0.38337494738 
0.046650027764 -0.95537950133 -0.2645333374 0.045128430966 -0.96171191987 -0.25076446764 0.074959247603 -0.98705189863 -0.12602642189 
0.089261146973 -0.9879520202 -0.11989011376 0.12757325603 -0.98486716006 0.0047309440049 0.13190901922 -0.98673716645 -0.031414990609 
0.17157851566 -0.97765474447 0.10936535138 0.17347071544 -0.98220862395 0.057880482146 0.20207444113 -0.96255260841 0.17300613724 
0.1952865813 -0.96920123508 0.13448170361 0.23296485287 -0.92733702005 0.2712173933 0.21685000002 -0.94596761243 0.224980884 
0.26409392583 -0.87995331146 0.39034288922 0.23892360585 -0.9041695075 0.34437340729 0.2694909049 -0.799538052 0.51998480894 
0.24329295661 -0.83898335487 0.47141293657 0.27243181443 -0.71367194773 0.64241275785 0.23817361005 -0.76372126076 0.59934044751 
0.28152728489 -0.62452543766 0.7223432874 0.22928756661 -0.67453571563 0.69349507532 0.26453341035 -0.54619157211 0.79131678126 
0.22339754573 -0.58485149979 0.77653929367 0.21821933576 -0.48000934996 0.84797635549 0.23224351978 -0.48912218107 0.83774680808 
0.2312291671 -0.36358630956 0.89493059926 0.22542734796 -0.36473736948 0.89492010243 0.25143066584 -0.23530152808 0.93705416283 
0.21392055378 -0.21027928365 0.95273266175 0.22040109695 -0.11308439265 0.9639298086 0.20778755416 -0.076560430485 0.9702991355 
0.20689568655 -0.014396474987 0.97668947993 0.20617836547 0.025992188221 0.97639210386 0.21110288171 0.060509188013 0.97518137881 
0.2099750803 0.10706171912 0.97105522767 0.20365373595 0.19938403208 0.95226605882 0.20997716935 0.22034244345 0.94865884278 
0.19005189071 0.3244133885 0.92422535161 0.20439661933 0.32781721654 0.91988869687 -0.14520738227 -0.85258962874 -0.50200173416 