# vtk DataFile Version 5.1
vtk output
ASCII
DATASET POLYDATA
POINTS 1114 double
77.883888245 63.633712769 45.870170593 76.773333956 63.759042593 46.914537704 76.65212859 64.925041763 46.544442598 
77.750616978 64.853534064 45.520242658 76.052685314 63.742539141 48.241610567 75.810015367 64.991351171 47.801084573 
75.645244427 63.810728703 49.69871468 75.341683762 65.173899728 49.25141003 75.554734073 63.972231077 51.204890887 
75.231742779 65.431409692 50.880525284 75.706403021 64.097291744 52.717641114 75.485983432 65.513694014 52.587317628 
75.937207929 64.015878561 54.227555696 75.712302452 65.432651943 54.206497634 76.507160437 63.921378574 55.643157781 
76.145280917 65.379340445 55.706058979 77.041176383 63.9893319 57.069868407 76.705912183 65.392521195 57.187980011 
77.687672929 64.077753906 58.441439573 77.367284422 65.42255396 58.615012059 78.537834663 64.115911402 59.709814494 
78.248686271 65.474482877 59.914146521 79.524997629 64.209041705 60.864075682 79.318322358 65.553100232 61.055360895 
80.773618795 64.217482177 61.729630471 80.594578142 65.628149907 61.952220788 82.194266183 64.296340511 62.290326254 
82.012955141 65.720117846 62.623539679 83.653443003 64.357193878 62.714732344 83.532643835 65.819816915 63.000326814 
85.172110587 64.424088021 62.851153267 85.093141173 65.862822575 63.165600804 86.70059268 64.422940754 62.904962665 
86.656871273 65.867144347 63.157350616 88.211586248 64.415493907 62.757999455 88.193521347 65.851372633 63.013348193 
89.689888952 64.461040356 62.375866788 89.672089876 65.894598653 62.610206704 91.168900575 64.551039963 62.005494507 
91.109015759 65.960460809 62.073582645 92.647833129 64.648399989 61.675763489 92.519402883 65.981814457 61.547005488 
93.883115126 64.710640095 60.775793704 93.786653043 66.021718042 60.681104249 94.978504605 64.635316943 59.71793585 
94.949959109 66.034413065 59.667254115 95.836845387 64.56474155 58.477284646 95.917327042 66.040072778 58.480653399 
96.426778912 64.53703061 57.073815221 96.661894883 66.072471309 56.999695286 96.770356718 64.521312615 55.588570604 
96.982414397 65.85616885 55.398109559 96.496693872 64.095107748 54.145241427 96.732822345 65.560132277 53.906334131 
96.110096576 63.780277154 52.701914084 96.232427276 65.276762206 52.462420262 95.549691724 63.539747892 51.306576541 
95.609595645 65.033892715 51.08194464 94.839226187 63.344262843 49.966942103 94.900930259 64.829148722 49.754906524 
94.05979962 63.177045951 48.661964402 94.107462054 64.661523374 48.476557592 93.143121763 63.095765823 47.440147598 
93.197399297 64.54305482 47.2865555 92.012151216 62.974508533 46.431543568 92.101996849 64.456663967 46.256464261 
90.744721026 62.917566069 45.590515886 90.882290181 64.419059012 45.362068548 89.38377626 62.946203916 44.898867815 
89.520126742 64.452150618 44.684751151 87.94505292 62.988807811 44.381179575 88.097427226 64.520031886 44.123551683 
86.466563396 63.125891989 44.015371083 86.585970722 64.652934878 43.775711201 84.955811085 63.193054034 43.800198767 
85.022238181 64.792976535 43.621483729 83.433736043 63.293541137 43.753079774 83.441753264 64.896633486 43.557304403 
81.925030236 63.429659877 43.917356593 81.876662934 64.91406318 43.733751396 80.452650087 63.504456898 44.298166224 
80.364026307 64.871654069 44.088578666 79.066386115 63.503596276 44.908656401 78.945554258 64.80846025 44.621823514 
78.394554138 88.998214722 37.739414215 79.94793385 88.9803362 37.552772427 79.93683386 87.391216754 37.798728005 
78.378033372 87.376742982 37.890331196 81.499705556 88.957122121 37.472893773 81.492521525 87.399654179 37.770712126 
83.046802354 88.918396133 37.703404341 83.048531069 87.398229795 37.930358527 84.598482841 88.887464742 37.899217477 
84.596005959 87.386212122 38.12625265 86.154197192 88.863392968 38.064495226 86.132935466 87.367841789 38.374761404 
87.659142973 88.889521145 38.487304216 87.628010689 87.397589971 38.824282009 89.13084009 88.953344403 39.002014441 
89.089795361 87.456083435 39.359328831 90.553534205 89.073357615 39.642078197 90.501835643 87.543835453 40.00322593 
91.847936713 89.200396762 40.505951903 91.807970315 87.65833603 40.831342758 92.993838164 89.314410758 41.539355885 
93.053864495 87.779943534 41.731569364 93.94075645 89.406624836 42.78152562 94.153901548 87.891229022 42.809156594 
94.911466589 89.538733994 44.001449174 95.282776231 88.055291617 43.877682446 95.882878038 89.670725915 45.220903809 
96.312516412 88.199727671 45.051558738 96.827620898 89.79258893 46.457099595 97.236830064 88.301940299 46.333710537 
97.433851849 89.819700779 47.89928277 97.881067093 88.279785779 47.801202189 97.97745738 89.844231133 49.365391634 
98.476685562 88.304725145 49.318527316 98.43575501 89.880436479 50.856251488 98.972268442 88.45833592 50.849345196 
98.640201475 89.983774837 52.404045452 99.249977984 88.641826222 52.421109067 98.50148612 90.036561189 53.942683816 
99.151258461 88.738212344 54.017414316 98.143919913 90.062885822 55.460298182 98.719484761 88.748709464 55.525721439 
97.497419331 90.079046687 56.885050494 97.981148515 88.697403745 56.925272763 96.705091192 90.087544397 58.228603793 
97.137576864 88.64275814 58.264733832 95.8219156 90.096302196 59.519602595 96.194393462 88.484748734 59.572367159 
94.867565778 90.131937054 60.758993535 95.08258554 88.088521917 61.115981215 93.844097239 90.154501761 61.94015879 
93.893906617 88.695222605 62.251838644 92.769338267 90.167209308 63.074295007 92.888601427 88.738698322 63.275638183 
91.432639641 90.1261911 63.886512722 91.654858393 88.650289832 64.137114015 90.023403954 90.103145525 64.527880445 
90.307700848 88.631019159 64.891226357 88.509215585 90.10610426 64.922048122 88.851918683 88.66516433 65.516052982 
87.004487728 90.097138083 65.350343373 87.318964723 88.66168273 66.011006947 85.495272886 90.084592833 65.752417426 
85.731497985 88.654466435 66.416140644 83.940568464 90.072104894 65.928148866 84.103053848 88.663609394 66.703120512 
82.3812759 90.087486744 66.009991594 82.372202926 88.648919703 66.798416993 80.817298624 90.131324969 65.995969501 
80.681676978 88.826932573 66.64816197 79.473562931 90.09424758 65.259278453 79.308635127 88.728552117 65.780009492 
78.18652372 90.049858013 64.373636125 78.028483036 88.646492346 64.79800104 76.994954399 90.037799779 63.359653641 
76.820470602 88.564941335 63.754470631 75.789318922 89.983838333 62.364759111 75.653542344 88.465148217 62.687151724 
74.572542007 89.896257411 61.385008004 74.509136634 88.352708412 61.609631965 73.398589531 89.806672181 60.354496773 
73.371378301 88.257345178 60.526881456 72.344136051 89.673558394 59.224268978 72.361762278 88.121854922 59.357260888 
71.477897921 89.471885515 57.936983897 71.493700138 87.954851419 58.065800372 70.797122026 89.232386503 56.554993075 
70.787599554 87.765016239 56.678593243 70.192267869 88.999583484 55.133968582 70.128973528 87.636080135 55.247022388 
69.656665451 89.160854386 53.672713959 69.492980726 87.66014655 53.790483079 69.165587257 89.254693077 52.195101872 
68.898422237 87.709963769 52.31299437 68.771733841 89.201284246 50.681771005 68.477579838 87.714017506 50.790849702 
68.749895201 89.160779409 49.154829971 68.445310657 87.669826647 49.194139672 69.034997634 89.130921371 47.61665949 
68.701656235 87.63491525 47.62403707 69.549654092 89.075712353 46.145090127 69.241821252 87.573167709 46.116061538 
70.140680504 89.014648987 44.701212275 69.861736726 87.54070961 44.636691579 71.154967877 88.967733225 43.510765568 
70.830814017 87.479851127 43.380977572 72.171076557 88.934675772 42.3216402 71.839202013 87.448092684 42.149694099 
73.192309079 88.940605587 41.136232127 72.9343738 87.427924113 41.001319396 74.348433058 88.955000908 40.102087804 
74.142619329 87.407062119 39.976963694 75.641778882 88.978007986 39.221820469 75.428599233 87.387066255 39.051954562 
77.004904788 88.990172068 38.458408879 76.887398468 87.361799803 38.407924834 75.435751065 66.176655084 47.174325003 
76.378247219 66.108200983 46.024850702 74.796539096 66.439424871 48.622525469 74.496100352 67.030426398 50.478796313 
74.834863751 66.873000871 52.608130079 75.178929201 66.788333766 54.309327107 75.680880093 66.767824715 55.876226186 
76.260581904 66.769309041 57.379412864 76.95859206 66.783492926 58.841803949 77.82884098 66.81603248 60.224537764 
78.964610244 66.906118733 61.405251763 80.299423519 67.021144998 62.337570685 81.788863205 67.1740038 63.025382947 
83.371427564 67.280587318 63.50414152 85.014550649 67.278624395 63.719126144 86.656056158 67.234205058 63.745627814 
88.267311957 67.181497069 63.624377493 89.81424376 67.192784631 63.252377052 91.297046624 67.248252802 62.699333398 
92.717756345 67.308514498 62.022949403 94.043221235 67.372873763 61.149758492 95.28480745 67.405442887 60.15441689 
96.505741609 67.452957121 58.96254627 97.597929161 67.787367179 57.099703138 97.512645137 67.318294588 55.093676348 
97.089673855 66.992209272 53.520406129 96.522870586 66.711644826 52.101546479 95.855943586 66.462921243 50.738915184 
95.106577456 66.257922193 49.438555522 94.27731293 66.098206851 48.197676584 93.376835437 65.968472583 47.011593387 
92.276058001 65.903225809 45.99349026 91.058029994 65.886351163 45.101157836 89.725342389 65.925668953 44.360804726 
88.294103062 66.015951659 43.770945973 86.74854785 66.175790701 43.406507992 85.145536447 66.36343167 43.272796003 
83.421856813 66.508983667 43.206299504 81.774299431 66.429529909 43.502797961 80.159727312 66.257237329 43.8879456 
78.746305353 66.08177523 44.285866037 77.467798401 66.010564012 45.004260125 81.515993739 85.844428145 37.70624468 
79.920270411 85.805918985 37.672731253 83.088052212 85.861916271 37.884098556 84.62812864 85.857598473 38.195814745 
86.139215284 85.85563672 38.603221693 87.6365168 85.877201766 39.067792176 89.104144648 85.921661132 39.604848736 
90.537381907 85.997525546 40.227489592 91.880918596 86.109424609 41.010012136 93.233684154 86.252055856 41.786757038 
[...]
POINT_DATA 1114
FIELD FieldData 21
Circ_Strain_Pt 1 1114 double
0.91853278258 0.92521119255 0.94600062458 0.96684190342 0.91804442501 0.93811125075 0.91377405569 0.93191166192 0.90081282576 
0.90546232359 0.86951274515 0.85871474421 0.83411505655 0.8155460599 0.81846673709 0.79344099177 0.83074667765 0.8123961304 
0.87487217306 0.87174631364 0.94481116675 0.94821367451 1.0245877802 1.027865165 1.0876541615 1.0588022724 1.0435044024 
1.0165073834 0.98470909221 0.96733556555 0.94016648128 0.90831016443 0.89893560609 0.87670036656 0.88018927466 0.87283930116 
0.89077527256 0.88857728368 0.92014712574 0.92321855136 0.9509803728 0.96091492804 0.97669319487 0.99420910959 1.0070014732 
1.0294028802 1.0241304285 1.0469078958 1.0117951508 1.0352968388 0.95329626831 0.96801284326 0.89260860059 0.9033809709 
0.83515534564 0.84634852528 0.79802335842 0.81314343286 0.78610784608 0.80223420502 0.79536751592 0.80918785938 0.83367622673 
0.84025376386 0.86953355951 0.86802118621 0.89234456525 0.87923680336 0.90020186612 0.88325443191 0.90046142505 0.87135390808 
0.88496079017 0.86630286961 0.8924105129 0.88059151997 0.91395025191 0.90162356414 0.91950918768 0.93687703163 0.91563950694 
0.96778825627 0.92265358141 0.97028590229 0.9579092567 0.95272627426 0.94227291973 0.94988525122 0.95172998419 0.93935863384 
0.962905538 0.95039437574 0.96906380924 0.96094964528 0.97080663373 0.97285718759 0.99652631623 0.99214264545 1.0128724766 
1.0031913086 1.0121061219 1.0015462709 0.99059552762 0.98794092206 0.97438007178 0.97576679896 0.97128104562 0.97296521737 
0.96501393324 0.96332419352 0.97237275695 0.95487799669 0.99156524324 0.96162617364 0.99314410216 0.97505751933 0.98883711886 
0.98416157074 0.98151691471 0.98202905319 0.97590083129 0.98108707231 0.97347886562 0.98541383284 0.97545032148 0.99451929387 
0.99332503812 1.0006927782 1.0049632989 1.0068046973 1.0131690337 1.0131855533 1.0210839691 1.0136710321 1.0125098246 
1.0099359531 0.99369324747 0.9919416598 0.96520494464 0.9676128009 0.9383528276 0.94289629823 0.9138680809 0.92542323405 
0.92324430292 0.9223950808 0.94310261838 0.92793871275 0.96477850771 0.94324067052 0.96725974927 0.96423017298 0.95014234684 
0.97754940334 0.96268863083 0.98760688811 0.97863531253 0.99345154417 0.98631835055 0.99237660808 0.98865187043 0.99203007548 
0.98669651608 0.99131807911 0.98543264262 0.98879056077 0.98601680324 0.98840066992 0.98951168609 0.99199271302 0.9916591414 
0.9967830039 0.99381383728 1.002804409 1.0057497319 1.0195606056 1.0162139906 1.0288340679 1.0234647297 1.0330844449 
1.0285831235 1.0376030173 1.0319421668 1.0430425817 1.0258740279 1.0472717165 1.017435649 1.0448372855 1.0096978138 
1.0334026018 1.00258312 1.0232484587 0.99722149547 1.0126056084 0.99299994167 1.003020881 0.9899381545 0.98996299524 
0.97599223727 0.97017504695 0.9681131128 0.98818374732 0.95969905565 0.93176589533 0.85704300456 0.80142318676 0.78098038819 
0.80419407693 0.85626295032 0.92815261585 0.99473145801 1.0315304299 1.0207435 0.958783592 0.89799922398 0.86106059494 
0.86912919621 0.88187050196 0.92399531094 0.96256109613 1.0040617195 1.0428064348 1.064359617 1.0585053764 0.99295917233 
0.93196215878 0.88085214925 0.85156383035 0.83950124715 0.83263316204 0.84485497766 0.8670812052 0.87715208446 0.87121871214 
0.85917058805 0.85462656455 0.86198686691 0.88281182366 0.92691524924 0.98650083941 1.0174770505 1.0056914738 0.92048255638 
0.92373898036 0.92832663072 0.94578660685 0.96526870247 0.98281627426 0.99016795894 0.99066608295 0.98734703302 0.97975540255 
0.97068401752 0.96032517938 0.94824543349 0.94817046415 0.95759699557 0.96739010801 0.98084699958 0.98787145006 0.99920339344 
1.008991637 1.011448919 1.0035010183 0.99860379875 0.99836101741 0.99977147208 1.0057034834 0.98067432883 0.95964546648 
0.93812445337 0.92365650635 0.9211929136 0.94226819573 0.98103151541 0.99777340057 1.0056753159 1.0043828635 0.9991319613 
0.99936863 0.99677293048 0.99233712036 0.98604910643 0.98231086814 0.9903734897 1.0030032331 1.0261462215 1.0346103847 
1.0290051587 1.0274867127 1.0543987536 1.0638632532 1.0619641097 1.0560716442 1.0484362371 1.0372859136 1.0191301549 
0.99776291358 0.96525384719 0.93861880185 1.004480249 0.98914080541 0.87482898375 0.93583376442 0.823006832 0.79124817303 
0.79240046566 0.83051225625 0.89672198471 0.96755478469 1.0105402733 1.0172192003 0.97027032127 0.91949139377 0.87848354839 
0.86947052295 0.88222261273 0.91329037716 0.9550490904 0.99667322604 1.0437306145 1.0735758981 1.0878460254 0.96845009181 
1.0165151534 0.91217226099 0.87959864764 0.86880154606 0.85353944586 0.85823505382 0.87179094815 0.88027654342 0.87637777871 
0.8672090666 0.85727812228 0.86404544439 0.90528381046 0.93812506486 1.001627674 1.0411905797 1.0332150351 1.0118323198 
0.99575800232 1.051933033 1.0928206027 0.9941400668 0.9866036066 0.98519997171 0.96833166709 0.95164826554 0.93749251036 
0.93200676305 0.94536566592 0.97375906984 1.0131579333 1.0037530742 1.0129241046 1.0105657375 0.99800416894 0.9897267989 
0.98816404457 0.98086955599 0.97270973048 0.98477962052 1.0101857387 1.0273929464 1.0279115263 1.0157742116 1.0194953373 
1.0312656118 1.0571496955 1.0759727201 1.078195565 1.0685075293 1.0526349355 1.0225658808 0.98818939551 0.94762758322 
0.91514163601 0.90057044346 0.90127921725 0.9151249853 0.94031941628 0.96750451926 0.98098787109 0.98317998814 0.97956938232 
0.976805233 0.97246171081 0.9659816588 0.9574272482 0.95040988213 0.94424499458 0.94961740074 0.95994146006 0.97491949027 
0.9952731341 1.0092663354 1.0191847663 1.0175077957 1.0070657237 0.99276769534 0.98179773229 0.98207105125 0.97656793569 
0.98909491409 0.97739697998 0.99966995952 0.99487869555 1.0570001302 1.0744188562 1.0085214391 0.95877518915 0.9184079308 
0.90758521258 0.90304016438 0.89928711456 0.8832094172 0.89248004832 0.89125193546 0.88146661929 0.88187608621 0.88277656448 
0.88942272527 0.91599677005 1.0201377471 0.98776632177 1.0513763252 1.0715664297 1.0561984672 1.0299327744 0.86867607273 
0.92201564265 0.82483363252 0.79760421568 0.80110215702 0.83265321244 0.87944946423 0.93444700063 0.99402908349 1.0071657601 
0.9827987569 0.93228267286 0.89547598726 0.89265274415 0.89550459486 0.91746825283 0.943592161 0.9718315922 1.0084186035 
1.0444910344 1.0849939295 1.0868295566 1.0802728415 1.0731581051 1.0692656196 1.0381647145 0.9763391899 0.97820245096 
1.0073931705 1.0009536937 0.96470683534 0.96215565999 0.97399789381 0.96059414218 0.9488286828 0.94461480109 0.95310472994 
0.96719660491 0.98676977684 1.0098667012 1.0034185171 1.0151484971 1.0162481972 1.0224974965 1.0108023874 0.99607030816 
0.99448033531 0.98977567434 0.97692515606 0.96714136419 0.97463807547 0.98910673124 1.0079174831 1.0262796558 1.0261748553 
1.0217896668 1.0371688979 1.0609867983 1.0797121753 1.0927039427 1.0969456743 1.0897657139 1.0675189433 1.0242231773 
0.96295054743 0.90873627459 0.87648656798 0.87644344834 0.89108952113 0.91528202874 0.93845794105 0.96142381165 0.97324855383 
0.98143710737 0.98491157344 0.97957394159 0.96867946088 0.95420508932 0.94207051887 0.93925843326 0.94580680813 0.95113860552 
0.95821986729 1.0092656411 0.9950837586 1.0191004558 1.0238074303 1.0091683956 0.99493212795 0.98906908612 0.98125026986 
0.96159713197 0.95468763971 0.96001968492 0.98512951773 0.95193255247 0.98869027401 0.98603956696 0.97188993749 0.95816256716 
0.95985720601 0.96642190934 0.941887424 0.95705032704 0.9248527357 0.93003780914 0.96872837305 0.9153278191 0.99043208142 
0.99478156206 0.98849969259 0.97444168603 0.96558339664 0.96183774248 0.97566932446 0.97669869803 0.97699881714 1.0048810543 
0.97227661683 0.94687141372 0.92327029606 0.92682679358 0.92606877246 0.91880315885 0.91024580115 0.90829119606 0.92177116967 
0.92738527684 0.92371400907 0.92476282399 0.94547512262 0.95801422871 0.98836503162 0.97606221036 1.0153031818 1.0236920205 
1.0426269374 1.0771924782 1.1011820717 1.0968939501 1.0728723494 1.0194660972 1.0449953331 1.01186065 1.0273048896 
1.0182794978 1.0014570408 0.97541495455 0.94002977184 0.88816277934 0.84673908777 0.82063287646 0.80809607767 0.82040980738 
0.8524514208 0.90261883682 0.95024057044 1.0003693833 1.0190813638 0.93966624671 0.96121198886 0.92647627506 0.92921633855 
0.92886426938 0.938558627 0.94875279313 0.97037432467 0.9966202143 1.0270121383 1.0485636454 1.0470029148 1.0423797905 
1.0651129726 1.045704804 1.0612889632 1.0471989028 0.99363076105 1.0291218886 0.99147683433 0.99217403284 1.0046748205 
1.0008547368 1.0059573306 1.0084197008 1.0066008019 0.9989083997 0.99709922759 1.0049032897 1.0016345238 0.99476334507 
0.97739415486 0.9634084009 0.96194647034 0.9776924381 1.0124140529 1.0285602607 1.0181335756 1.0049174082 1.0253495052 
1.0550794957 1.0752811268 1.0947194669 1.1094901571 1.1168489394 1.1092994216 1.0691335792 0.99109322089 0.89766475629 
0.86300882403 0.85490951815 0.88070665022 0.90363014403 0.93127049131 0.95676089465 0.97507791755 0.98708598309 0.98797151044 
0.9765453489 0.96037996715 0.94493547655 0.93723888059 0.9358241215 0.94543805315 0.95484991362 0.96194978583 0.97462616074 
0.99554669062 0.98605593628 1.0040675688 1.0080543166 1.0218153638 1.0300814408 1.0283978916 1.0084940336 0.98670740331 
0.84365009913 0.85262975403 0.9821864242 0.99458961812 1.0076818131 0.9920613982 1.0095921068 1.0061863045 1.0013035318 
0.99742783048 0.99362063668 0.99454547443 0.99635794643 1.0033532249 1.0056466641 0.99060651663 0.97937764564 0.97847621804 
0.9998528763 1.0193621429 1.0065807734 0.99926962075 0.99750105745 1.0078105691 1.0275273669 1.0597973758 1.0874946185 
1.1122921373 1.1264591686 1.1281001133 1.0878879849 1.032869228 0.92667338593 0.8698359532 0.84040393007 0.86542245028 
0.83995008754 0.8458285659 0.85805011787 0.88309708447 0.90842589915 0.93394443586 0.95836584451 0.97541755895 0.98982826824 
0.99678565728 0.98461852272 0.96157468521 0.94025441991 0.93189942613 0.92785327629 0.93970586607 0.95515005474 0.97288555225 
1.0111890156 0.97446690388 1.0224499419 1.0182390825 1.0195902175 1.0273769153 1.033744138 1.0253500912 0.99202031542 
1.0187064523 0.97706675012 0.9447014653 0.92905568826 0.93441160648 0.93946050351 0.93398098222 0.93369987006 0.94578138466 
0.96429404196 0.97015340644 0.96568373637 0.96032457363 0.96017203682 0.96261114791 0.97553381914 0.97842910643 0.97258246264 
1.0032064438 1.0213017423 1.0587387527 1.0898347199 1.1117200303 1.1234465659 1.1084724738 1.0765571529 1.0567789236 
1.0379638994 1.024194093 1.0088016121 0.98748876699 0.95657094351 0.92303669266 0.89151202825 0.86931542733 0.84888707411 
0.85094655774 0.87569181184 0.90379880802 0.94956984688 0.9924369102 1.0222185471 1.0374955226 1.0237211916 1.0325142868 
1.0139951158 0.99559947499 0.98249535363 0.97216428625 0.95904791931 0.94458379526 0.93242260991 0.93676879438 0.95654498985 
0.97664162968 0.98633226707 0.98707206556 1.0114797905 1.019016879 1.028494782 1.0553473797 1.0412216607 1.0605055787 
1.0613566161 1.0414508711 1.0006492577 0.98584679581 0.99225301674 0.99979518989 0.99713251414 0.99289184337 0.98984867595 
0.98764407218 0.99383313674 1.00003553 1.0106974418 1.0191768619 0.99461540636 0.98617979489 0.99959582313 1.0205748502 
1.0614243786 1.0949121081 1.1114098007 1.1175412519 1.1029146064 1.0627422203 0.98890197047 0.93675165639 0.93072169853 
0.89802170175 0.8871640942 0.92260522873 0.86455014881 0.85996935053 0.86918561651 0.88514801612 0.90789556285 0.92728027451 
0.94947173591 0.97090131191 0.98615236352 0.99695908654 0.99913623116 0.99611263496 0.93719097096 0.9554648411 0.93015761737 
0.93098440363 0.95567071445 1.0175769407 1.0037830255 0.93984755825 0.99115542005 0.95201048857 1.0172739348 1.0438069695 
1.0395403366 1.005302225 0.97368793072 0.95403588151 0.93693410131 0.93188683856 0.93308253545 0.94525615314 0.95599800223 
0.9695695795 0.99036741331 0.99722873076 0.99213225173 0.9850587073 0.97562042801 0.97456049734 0.95397011716 0.95458652613 
0.97058594311 0.99607822447 1.0350948058 1.0519141166 1.071721783 1.0908488749 1.1088337867 1.1113576474 1.0914205643 
1.0585598463 1.0337898029 1.014777683 0.99757681409 0.98939802524 0.97647708709 0.95742972043 0.93843390415 0.92254040224 
0.90679905361 0.89886401704 0.90611478838 0.91640519934 0.93647598381 0.97261870199 1.0154203617 1.0344110886 1.0365773924 
1.0281066831 1.0233269577 1.0190258409 1.0151593073 1.01279959 1.0093448175 1.0061261614 1.00340628 0.97014646032 
0.93996236592 0.9189887438 0.93380654156 0.94552332256 0.95010866203 0.96753548802 0.96950768062 0.98579100853 1.0083207993 
1.0317979732 1.0529650797 1.049426015 1.0535264048 0.95172355456 0.92676970225 0.91371824559 0.91222581403 0.941082312 
0.97084727395 0.99091783833 0.99328074904 0.99142503315 0.98397898976 0.97642941579 0.97776343076 0.98032788444 0.99870809636 
1.0148577609 1.0104979303 1.0135867115 1.0020386923 0.99238681109 1.0205685813 0.95160226031 0.9288954213 0.93310452399 
0.93874040445 0.95185908041 0.96569866581 0.97882475579 0.9942765114 1.0031973685 1.000376543 0.99134988859 0.91457176514 
0.92480270884 0.94148692065 0.93525447021 0.94867188993 0.97507261328 1.0035376025 1.038221346 1.0418933105 1.072295507 
1.0880128041 1.0945789551 1.086748734 1.034141292 1.0644383267 1.0086894555 0.99561101036 0.99112107464 0.9927691497 
0.98574391519 0.97970880137 0.97723105606 0.97792934103 0.93294364125 0.94724175088 0.92889456223 0.93690152232 0.96352412697 
0.99060283678 1.013990897 1.0238604489 1.0186477875 1.0822293192 1.0839523965 0.97928945467 0.99188746394 1.0357935383 
1.0168132065 0.99521737063 0.97330388726 0.94923903803 0.92048554894 0.92076393966 0.99837577743 0.99018785895 0.98167343792 
0.9856157743 0.98565490511 0.98495438157 0.98693822317 0.99430200175 0.99480581129 1.0023487318 1.0157590767 1.0125807323 
1.0054956835 1.0001673391 0.99290272959 0.98320451603 0.99112575884 1.0266314719 1.0633119538 1.0959801946 1.1064257624 
1.1022379405 1.0847333264 1.0358024679 0.98742383046 0.94420871795 0.93537809807 0.96898988419 0.91919483299 0.95606282993 
0.89750520356 0.8768268047 0.87453264299 0.88712069403 0.98605327962 0.99690725789 1.0040801161 1.0136502679 1.0160860012 
1.0139795161 1.0167775769 1.0289856421 1.0160629531 0.974913198 0.94228668361 0.97114143044 0.99167045372 0.99797311669 
1.0009066296 1.0005890652 0.99859855309 0.98199004438 0.99785507754 0.97729820522 0.96345645977 0.94578513993 0.93492924121 
0.92934865514 0.92992683077 0.94636192004 0.93537186837 0.98081135989 1.0241479771 1.0087038222 1.0208870377 1.0117689693 
0.99934348993 1.0030251468 1.009344073 1.0037321142 0.99613684832 0.98784762185 0.99363607794 1.0234539522 1.0609860238 
1.0836540479 1.0915824548 1.068562939 1.0509349755 0.9767194621 0.94649935949 0.92716974705 0.94894546942 0.90509021347 
0.98129594159 0.97719364872 0.9715290867 0.96501589347 0.96549072071 0.97685091367 0.9870555464 0.97011920123 0.95503816342 
0.9484672284 0.94982820768 0.95769100466 0.98297281517 1.0027018434 1.0122524328 0.96794724758 0.95149473171 0.93784621108 
0.98236439475 1.0030062105 0.99454077875 1.0571352813 1.0422906832 1.0757863688 1.0808938588 1.0815039803 0.97951188348 
0.93052999327 0.92924137779 0.94573952732 1.010203832 0.96020343611 1.0487086174 1.0193530641 1.0682412268 0.99014459987 
0.99028059057 0.97396341878 1.0489509043 1.0548800515 0.97488162837 1.0106923883 1.0175503676 
Circumferential 3 1114 double
0.82966963317 -0.09056264407 -0.55085997068 0.72161579421 -0.088225106101 -0.68262539874 0.66357499575 -0.079030626542 -0.7347214227 
0.81762895358 -0.037219207268 -0.57115073091 0.46936872524 -0.096535298771 -0.85582137078 0.45690695008 -0.12330920394 -0.8663055154 
0.20153762737 -0.094622029495 -0.96288708142 0.1874144946 -0.17666824467 -0.95756232214 -0.018580536926 -0.076841577109 -0.99164112463 
-0.038251920391 -0.19682613571 -0.97728547368 -0.17675259256 -0.053213401083 -0.98164946349 -0.14571016662 -0.15959936308 -0.97572001301 
-0.27856495342 -0.044150775439 -0.95929095823 -0.25428554816 -0.10115092207 -0.95997163154 -0.39328234689 -0.077060039132 -0.91318678149 
-0.35113535 -0.082517834789 -0.93199151894 -0.46488392347 -0.078771678508 -0.88117025145 -0.44777770468 -0.075367726927 -0.88900165689 
-0.54765129768 -0.071457318497 -0.82918053637 -0.56244840614 -0.075293518382 -0.82136605075 -0.66534403699 -0.065633769091 -0.74088445976 
-0.68351896664 -0.082490088739 -0.72175599309 -0.77123148455 -0.039512559662 -0.62774646736 -0.80620023878 -0.085720424566 -0.58243611878 
-0.89762323557 -0.024382367002 -0.43662903288 -0.9022135188 -0.076911045093 -0.42134802756 -0.95033469297 -0.030429100374 -0.30349409622 
-0.95657114951 -0.054051487043 -0.2819916251 -0.98496475668 -0.0019245686207 -0.15778269328 -0.99105449851 -0.024836087272 -0.12002017529 
-0.9983989863 0.013661094578 -0.047811325616 -0.99858594829 0.01704886986 -0.0007722958652 -0.99869103849 0.023868960754 0.022280400578 
-0.9901742505 0.083802375119 0.079095167195 -0.98139480758 0.030935313411 0.16332536779 -0.96329747305 0.10163646442 0.22936546056 
-0.96752822014 0.028498428575 0.2510949168 -0.92578843225 0.12639927583 0.35194601552 -0.95855856979 -0.014602298532 0.27677124311 
-0.90343818845 0.16053132675 0.39045462119 -0.93168658195 -0.091496249923 0.34214659199 -0.87634403658 0.1737582097 0.44241434305 
-0.81428257942 -0.039634332069 0.56693609014 -0.79582684634 0.14797808294 0.5774614086 -0.7029349564 0.0017020155085 0.70386375316 
-0.68456801616 0.16741405173 0.69924282473 -0.55473829466 0.025960267149 0.82055461149 -0.51945886195 0.16498412908 0.82474217073 
-0.28635862736 0.043974534011 0.92152518788 -0.29320290018 0.12304281415 0.93970220618 0.20878893151 0.082099044282 0.97446353592 
0.011004217536 0.061052747057 0.99367280017 0.24240306096 0.11837386823 0.96259492425 0.26666665297 0.062966720852 0.95684757478 
0.38549854513 0.14806982751 0.90317800836 0.44927505601 0.085331426766 0.88357154492 0.53223055061 0.1671711701 0.82518175429 
0.58442024206 0.099442715337 0.80233416435 0.63788065031 0.17829567797 0.74743755496 0.67284634695 0.12840433498 0.72735030113 
0.70998343031 0.18787848416 0.67827178148 0.73628439583 0.15051034906 0.659328749 0.78225023345 0.17265920657 0.59605915302 
0.8057881762 0.13761806521 0.57292286709 0.85482470828 0.13131948716 0.49434558592 0.87163691477 0.10675083138 0.47341137097 
0.91293706349 0.09139455441 0.39171169378 0.92086822545 0.084382152094 0.37828320261 0.95017426351 0.065064717444 0.30407120978 
0.9495066201 0.049945046902 0.30841088618 0.96461740773 0.053644333293 0.25794259877 0.96844360174 0.033438268826 0.24600875284 
0.97717979463 0.0027655234672 0.21010832764 0.98673054025 0.0098575377651 0.15717668279 0.98703370952 -0.039564735859 0.15049430033 
0.99432517833 0.0074681387908 0.10137448371 0.99462355499 -0.058267371124 0.068061435739 0.9970630415 -0.0047338899555 0.02125847752 
0.99299036603 -0.072926385843 -0.048578502935 0.99119245313 -0.059097973498 -0.092113772411 0.97315182483 -0.086066403064 -0.19363419148 
0.96473793666 -0.066847302958 -0.21160222803 0.92480806971 -0.087386232837 -0.35753692551 0.90471184094 -0.047453819785 -0.40578332931 
0.97356293668 -0.044920492378 -0.22395838381 0.98749210685 -0.00096825389159 -0.062731025026 0.99339260372 -0.023022007166 -0.026453845091 
0.98665566723 -0.050797069091 -0.15067899793 0.99697852251 0.023878755359 0.067278046119 0.99580408003 -0.00043183656371 0.083138194326 
0.99354865266 -0.0068182894799 0.10652713549 0.99059354178 -0.0086518231065 0.13101544157 0.98635104144 -0.018079104273 0.15704305617 
0.98248558047 -0.010459040001 0.18149650494 0.97583763905 -0.012235114328 0.21747432304 0.9710405057 -0.0042077371298 0.23847941627 
0.95176511379 -0.013780435456 0.29927830557 0.95050176506 -0.0027409851192 0.30608211977 0.918158792 -0.010254890949 0.38909840635 
0.92270336182 6.0801296492e-05 0.38065782737 0.87041525985 0.0020474509986 0.48994643121 0.88254310709 0.0067833448937 0.46857825377 
0.77763386508 0.029074150943 0.61630099654 0.82747281875 0.025970941855 0.5544266106 0.69920877029 0.051203922878 0.71191297398 