# vtk DataFile Version 5.1
vtk output
ASCII
DATASET POLYDATA
POINTS 1147 double
25.594522476 44.217456818 13.753004074 26.831512055 44.775147127 12.90173071 27.500850152 43.346503198 12.992207828 
26.291731966 42.854756687 13.902415415 28.01177607 45.309204523 11.964178653 28.703352084 43.829959724 12.031614763 
29.173813545 45.834101514 11.001973545 29.893772565 44.329446378 11.060661631 30.482747819 46.411053542 10.281109159 
31.129478915 44.909292903 10.197477795 31.705590717 46.948441534 9.4032558805 32.399205529 45.523577518 9.41009916 
32.94255457 47.501979051 8.572389365 33.681314914 46.148338642 8.6641136036 34.313189264 48.147351545 8.0521173968 
35.033910313 46.818066928 8.1179006649 35.70220107 48.884948487 7.8009576071 36.37266206 47.500948042 7.5817159838 
37.110207505 49.631374068 7.6530206532 37.769986221 48.208189343 7.2399237438 38.58578119 50.244004709 7.5381553508 
39.23216199 48.870644232 7.0358503692 40.062273082 50.799043921 7.5892868982 40.702966921 49.544935747 6.9547303928 
41.540999088 51.213956085 8.0443092451 42.182848746 50.003412134 7.3943663161 42.92858901 51.664412597 8.6391204292 
43.584691392 50.590131742 7.9293772403 44.054102334 52.217082652 9.6359171023 44.837445498 50.99747497 8.8949319373 
45.249337217 52.678995142 10.576100021 46.091832092 51.374224883 9.862930739 46.615354983 52.918597077 11.37760761 
47.349213787 51.630734896 10.86148047 47.94594451 53.123995564 12.227599063 48.634810601 51.863614991 11.795857952 
49.048896239 53.109625919 13.389114898 49.710918832 51.839438847 13.021715837 50.151847969 53.095256274 14.550630733 
50.728766368 51.807332438 14.282461887 50.460704224 53.009237536 16.098882186 51.41693107 51.753199962 15.876151393 
50.702866497 52.917201181 17.679614542 51.703437676 51.896516352 17.589938541 50.426729739 52.959486853 19.228180686 
51.563185643 51.954173052 19.235565079 49.988945775 53.043664906 20.766714824 51.253519744 52.004880751 20.850689578 
49.637740107 53.090891603 22.327217155 50.95728276 52.042592331 22.4639995 49.333648801 53.118010032 23.899674184 
50.663263842 52.068417119 24.069671967 49.006558241 53.106200403 25.467528817 50.392832243 52.0951991 25.674220081 
48.695545181 53.080234259 27.035406617 50.188025881 52.100428962 27.282170406 48.83034027 52.970656594 28.627779393 
50.079062379 52.031736366 28.897135339 48.872248324 52.855838377 30.208614532 49.952560253 52.030538237 30.508611585 
48.366163429 52.710103197 31.721382649 49.412906773 51.69165048 31.994769212 47.789462333 52.545209743 33.202078139 
48.734408621 51.367776488 33.435167448 47.062343054 52.339507626 34.614456358 47.92145636 51.022252402 34.790613758 
46.253612756 52.10948366 35.971570899 47.007847445 50.699149963 36.101124272 45.309372474 51.839074785 37.236923565 
46.026300663 50.387122735 37.355802543 44.266567179 51.558309845 38.400777424 44.944336379 50.100655401 38.557335019 
43.003358645 51.254387492 39.337667729 43.672003203 49.799795237 39.53590727 41.708239695 50.942043187 40.214236541 
42.327623948 49.470074151 40.416947731 40.260833282 50.589506434 40.802930479 40.887081574 49.092183243 41.060696386 
38.81342687 50.23696968 41.391624417 39.421277937 48.652465909 41.637042561 37.364971116 49.595680922 41.627388691 
37.940793982 48.083170184 41.904616666 35.916510479 48.953048087 41.861510157 36.455249751 47.480411382 42.138531722 
34.444176065 48.330444538 41.832211319 34.958046276 46.862900574 42.164983792 32.96859595 47.710564023 41.767099808 
33.4319063 46.257124674 42.148684498 31.51532866 47.200876819 41.365630746 32.006663237 45.687114895 41.692654157 
30.067894955 46.719999146 40.87622256 30.570322863 45.15084302 41.217646758 28.741159511 46.161300429 40.192301018 
29.245896636 44.588092731 40.47697892 27.467502258 45.56837918 39.422840407 27.944046202 44.011466947 39.719995185 
26.208247345 44.952807224 38.647733561 26.753443216 43.428452242 38.806586142 24.956374813 44.325624922 37.869732556 
25.570182083 42.836500175 37.93895808 23.941665379 43.768189343 36.804471223 24.686682187 42.368695674 36.682233056 
23.076682636 43.254786524 35.557855629 23.855878158 41.933300564 35.398560834 22.407808465 42.999162027 34.162082668 
23.173585956 41.652778975 33.987252423 21.900732369 42.956215823 32.643248413 22.576143747 41.499483904 32.523018071 
21.329150239 42.87613691 31.151730541 22.031643556 41.385921322 31.040813468 20.674614862 42.748306203 29.695340899 
21.514263907 41.253821731 29.564425184 20.378346275 42.606300393 28.155921762 21.264677319 41.184360468 28.02517205 
20.31503993 42.455077251 26.562512867 21.151135996 41.115517658 26.470870132 20.599264523 42.534224369 24.991240507 
21.31548475 41.190536821 24.923885489 20.877486233 42.680973404 23.422759723 21.565893564 41.326728346 23.385065257 
21.107989794 42.928974728 21.857131577 21.826103334 41.469150629 21.84776134 21.416040736 42.896246116 20.291265588 
22.244851431 41.561871049 20.356034033 21.955615826 42.894812888 18.823567416 22.774129961 41.635613567 18.910575358 
22.899509051 43.063688078 17.540456045 23.507933784 41.814631012 17.553017242 23.775576545 43.33591966 16.228540482 
24.357723699 42.088895142 16.266970827 24.666316188 43.716753746 14.958639823 25.282167682 42.439681294 15.047395987 
47.370232906 25.943152159 36.111352285 48.882101215 26.334128775 35.868257007 48.319052342 27.734716008 35.962467758 
46.857072599 27.141320125 36.236574899 50.41714724 26.573288266 35.373770407 49.797345049 28.150899903 35.468019322 
51.864212456 26.941710875 34.711017085 51.223994685 28.549925516 34.824221331 53.211992009 27.438194418 33.931008566 
52.570291617 29.000338891 34.084700637 54.441964608 27.985501236 33.001866758 53.812579235 29.526436584 33.256244102 
55.556608419 28.810899546 32.129525328 55.110410866 30.138078415 32.57777724 56.978470608 29.409099164 31.745506663 
56.415663427 30.688544727 31.973990546 58.526338957 29.914112837 31.561774442 57.742475956 31.179670156 31.475574984 
60.074207306 30.419126511 31.378042221 58.929657856 31.495672072 30.710651411 60.991736964 30.541681139 30.026076077 
59.957409574 31.817315774 29.683465047 61.787942503 30.665208367 28.627024511 60.886488865 32.183808006 28.496409309 
62.024390747 30.793222908 27.010733303 61.081035341 32.258312882 27.025160385 61.999911346 30.930992928 25.404909575 
61.130581685 32.416998798 25.501379577 61.645133741 31.081112032 23.812336227 60.823856109 32.548142359 23.999217152 
61.101752949 31.155173153 22.273717958 60.345436798 32.649434817 22.502632078 60.480789428 31.200264211 20.758736739 
59.720787706 32.705657988 21.0406866 59.638919862 31.230850032 19.353385215 58.96576614 32.71948691 19.615734123 
58.764076341 31.260049145 17.969972831 58.165303941 32.710399078 18.210713598 57.79141161 31.285134424 16.651645552 
57.217177911 32.59585616 16.883940919 56.885279879 31.10550123 15.323517456 56.30088559 32.381092252 15.549727282 
56.075762595 30.628590561 13.981157315 55.33793493 31.978013998 14.293712677 55.040533758 30.073000622 12.880235464 
54.26853472 31.511340866 13.133503682 53.824848988 29.454506766 11.972343039 53.01132478 30.967988863 12.268796876 
52.375976905 29.00779945 11.50233467 51.575839337 30.443425346 11.694297738 50.78750586 28.663933162 11.294468176 
50.08329149 29.872110576 11.443454425 49.394575359 27.900071616 11.2461195 48.649388644 29.106621423 11.39619751 
48.130835043 26.858726622 11.303161429 47.284766221 28.176306044 11.446411615 46.832826971 25.874733612 11.153573465 
45.937587546 27.200388675 11.350485999 45.543671957 24.884474313 11.087695621 44.606373649 26.211066344 11.280130016 
44.291365931 23.852774473 11.31576978 43.283700741 25.219256239 11.385827632 42.938359111 22.980234506 11.604294668 
41.939852348 24.287400385 11.685512681 41.56320898 22.15623625 11.93998204 40.588767796 23.383876284 11.990745452 
40.191996141 21.349320655 12.331588141 39.267357656 22.443379877 12.315630356 39.135789926 20.251780828 12.91369591 
38.147526682 21.435111921 12.90854437 38.144820828 19.166084657 13.619205665 37.157959136 20.439875268 13.727296676 
37.210599504 18.171623928 14.526383233 36.280608276 19.553790555 14.6910909 36.490188122 17.426225512 15.776742108 
35.555199971 18.850640515 15.913644957 35.816180472 16.975498185 17.167099838 34.9039708 18.380921488 17.251863428 
35.177095942 16.916542227 18.667628039 34.331858612 18.212861016 18.697622493 34.845131958 17.179974897 20.250377516 
33.986096004 18.379242056 20.201429708 34.552509779 17.522023079 21.825184967 33.783143574 18.762098496 21.725317997 
34.277184714 17.919746356 23.390255991 33.655094245 19.233172156 23.252096939 34.034505603 18.356848406 24.948957983 
33.569904239 19.698474701 24.792207806 33.979571488 18.839437101 26.513816814 33.478617053 20.046353716 26.349293216 
34.398769476 19.010663168 27.993157632 33.845496881 20.292342527 27.894005051 35.237544069 18.906353211 29.396820476 
34.589514177 20.455162134 29.296553989 36.197952845 19.117246733 30.685197315 35.565168096 20.750004059 30.574277604 
37.21364033 19.471389797 31.921180482 36.583047161 21.165026189 31.793203864 38.346834229 20.170886126 32.874009569 
37.747332299 21.773643059 32.746287393 39.5169944 20.932212187 33.710695638 38.907416566 22.456120722 33.651247214 
40.761543269 21.812953184 34.310767444 40.125801429 23.162480935 34.455899799 42.144886425 22.417735802 34.916177094 
41.462200711 23.844658526 35.086626156 43.551363763 23.008699887 35.495807876 42.821261635 24.538489861 35.65131586 
44.885242427 23.813808424 35.976067955 44.165253961 25.340388626 36.103425044 46.133258768 24.86918159 36.09154721 
45.499283449 26.250593505 36.298594443 29.212737074 42.260616971 11.847403881 27.98060296 41.830763838 12.835332713 
30.517565653 42.787300808 10.972125686 31.783689282 43.404141983 10.10520494 33.076397276 44.092522724 9.3561704681 
34.401329771 44.782967723 8.6955957276 35.729532888 45.458516427 8.0453797425 37.060942181 46.129322746 7.4120093017 
[...]
POINT_DATA 1147
FIELD FieldData 21
Circ_Strain_Pt 1 1147 double
0.99298723663 0.99431118477 0.99779254635 0.9967826447 0.9946755317 0.99841310432 0.99401279019 0.99852607621 0.9916401417 
0.99866004948 0.99186067362 0.9983858262 0.99361712347 0.99826289995 0.99752033612 0.99816735882 0.99655887014 0.9978051393 
0.99373537084 0.99614842964 0.99033537659 0.99374214132 0.98869841552 0.99140929135 0.99135113385 0.99363821519 0.99264308991 
0.99456524538 0.99002195303 0.9947879122 0.98824356195 0.99354728148 0.9885294758 0.98965141524 0.98768210299 0.98528593399 
0.97955299972 0.98618302368 0.97142389646 0.98870342672 0.97883997761 0.99246501443 0.98756165775 0.99342879857 0.99294869646 
0.99738535054 0.99729572653 0.99912004648 0.99866327262 0.99963331358 0.99840943679 0.99957598347 0.99401811851 0.99735695349 
0.98889038189 0.99367014322 0.99044071585 0.9898965419 0.99232352034 0.98984219387 0.99616775571 0.9951566746 0.99851167766 
0.99930119776 0.99765981578 0.99875898316 0.99693999367 0.99817682293 0.99643941514 0.99733514658 0.9962049517 0.99612701362 
0.99656555368 0.99642149525 0.99684903377 0.99656760533 0.99676446175 0.99635127382 0.99667988973 0.99655076793 0.99734889 
0.99719685971 0.99802139799 0.9971889792 0.9976470339 0.99590978906 0.99713034484 0.99499490123 0.9974744328 0.99582477986 
0.99804356692 0.99728867276 0.99643550349 0.9979292775 0.99386999706 0.99656335236 0.99171127461 0.99485162661 0.98976106234 
0.99347451282 0.98925694065 0.99395873952 0.98966577027 0.99503758646 0.99039453086 0.9962282016 0.99138724844 0.99740058011 
0.99212322184 0.99712353059 0.99252902742 0.99609086477 0.99373576165 0.99617916297 0.99546329812 0.99661714559 0.99798453734 
0.99796403313 0.99766814215 0.99841753771 0.99200041625 0.99686881089 0.98806801007 0.99624766722 0.98819681077 0.99675590926 
0.99526887717 0.99879234468 0.9965563331 0.99876633026 0.99556151125 0.99750513357 0.99800300025 0.99775037205 0.99799440127 
0.99837024301 0.99793557591 0.99849919509 0.9984413194 0.99890106906 0.99865769835 0.9984436211 0.99403195596 0.99821464356 
0.94591407141 0.98940402754 0.90929740773 0.98136020125 0.87739804113 0.96927173533 0.84549869733 0.95298419603 0.92499888388 
0.96818451302 0.9905985123 0.979369741 0.99206504586 0.98851552386 0.99381821724 0.9936312376 0.99593423233 0.99702869112 
0.99742041944 0.99803011311 0.9986396563 0.99852736647 0.9988680153 0.99895023305 0.99904528594 0.9992399701 0.99907099684 
0.99909539513 0.99804606476 0.99722749094 0.99549547382 0.99540082402 0.99246546802 0.99343556792 0.98905217103 0.99239865442 
0.98864235849 0.99244836293 0.99003059963 0.99374738454 0.99164414807 0.99557802711 0.99340655307 0.99598215534 0.99258415211 
0.99763844221 0.99267579297 0.99809714032 0.99612961338 0.99903667859 0.9985241112 0.99903092154 0.99945837635 0.99822020892 
0.99832216303 0.99710123625 0.99796217582 0.99570991528 0.99723448782 0.99546425758 0.99559318533 0.99601580804 0.99581603857 
0.99701430712 0.99515015784 0.99699029043 0.99306856849 0.99623271111 0.99546877832 0.99747161738 0.99829609903 0.99783339735 
0.99958675504 0.9964915284 0.99861939049 0.9933363375 0.99261199104 0.9873823401 0.9913398006 0.98928383174 0.99425796748 
0.99345473289 0.99639774053 0.99595778176 0.99818375938 0.99745620977 0.99689002558 0.99794193693 0.99624696756 0.99804251982 
0.99708652116 0.99772707161 0.9986421166 0.99849071931 0.99877522971 0.99827117261 0.99629019669 0.99764687767 0.99795152055 
0.99805750409 0.99862604779 0.99933666438 0.99852277546 0.99891043342 0.9988091439 0.99917638807 0.99772252583 0.9959428256 
0.99365960604 0.99191826218 0.99072413831 0.99059383018 0.99188084428 0.99420065913 0.99463790922 0.9923158918 0.99001150193 
0.9892086664 0.99264341194 0.99769150987 0.99580733341 0.99401499602 0.99410736184 0.99653365776 0.99873906608 0.99736660465 
0.99055087324 0.98879304725 0.98834181014 0.99312771114 0.9980537504 0.99895478175 0.99882718908 0.99804681889 0.99703183266 
0.99568235829 0.99459141231 0.99462215677 0.99576838825 0.99696989425 0.99678970667 0.99510807058 0.99393339209 0.99484355935 
0.99631466778 0.99742068137 0.99752967894 0.99589276425 0.99501608394 0.99610323435 0.99791454774 0.9985477861 0.99838870009 
0.99731273769 0.99632938638 0.99756998476 0.99800550648 0.99819933686 0.99770316627 0.9970151518 0.99662974763 0.99750851455 
0.99890986666 0.99823734561 0.99805314644 0.998315265 0.99885417061 0.99790829506 0.99899717764 0.99880884103 0.99954609977 
0.99952960434 0.99647264836 0.99308229794 0.97657147321 0.93201140494 0.93894015693 0.96625640544 0.99588604483 0.99711048973 
0.99806620248 0.9987456262 0.99921844673 0.99942614985 0.99882048049 0.99793480413 0.99639246273 0.99538367732 0.99599466745 
0.99561857097 0.99641386608 0.99726287615 0.99779665567 0.99812444662 0.99787231354 0.99781637058 0.99806309428 0.99766530984 
0.99614196984 0.99404592772 0.99436347402 0.9965204216 0.99561009453 0.99599103701 0.99698877498 0.99785388948 0.99801955953 
0.99706655544 0.9853701715 0.98209819689 0.98425849522 0.99344006231 0.99766794018 0.99924498131 0.99891001328 0.99861367205 
0.99838492809 0.99838246217 0.99788894995 0.99672047776 0.9968425004 0.99790244427 0.99895068801 0.99876652323 0.9985256099 
0.99711738208 0.99688943506 0.99737047299 0.99575596055 0.99401525901 0.99223912681 0.99059466037 0.98996894382 0.98931969375 
0.99139862691 0.99174277164 0.99281849837 0.99084177714 0.99172899848 0.99467768394 0.9968318955 0.99648283147 0.99772068747 
0.99496025767 0.9959351919 0.99730407996 0.9975980069 0.99450193808 0.98958571065 0.98515044367 0.98936953758 0.9932693606 
0.99708614929 0.99730822648 0.99777921878 0.99812789039 0.99818808507 0.99604168274 0.9942469333 0.9951509224 0.99608559181 
0.99654631807 0.9968998707 0.99603212992 0.9949353909 0.99461626977 0.99566662746 0.99581125444 0.99453656543 0.99395317704 
0.99478538651 0.99600449725 0.99815204284 0.99503604383 0.99163248222 0.99222618391 0.99509603256 0.99717296083 0.9972244437 
0.99771557542 0.99767474307 0.99874002491 0.9988605382 0.99790037658 0.99782199894 0.99843176221 0.9994900791 0.99884978346 
0.99744217463 0.998113721 0.99843669352 0.99882731732 0.99858123061 0.99930646213 0.99533395566 0.98877402033 0.96544114664 
0.93501790923 0.924329179 0.92047359678 0.95236687404 0.99075148772 0.99779633349 0.99784599283 0.99795381446 0.99863244706 
0.99920654933 0.9989114061 0.99876308069 0.99724332878 0.99562927969 0.99576899566 0.99685494646 0.99490853082 0.99364529767 
0.99464791373 0.99841590826 0.9991357127 0.99875266574 0.99881179016 0.99813551958 0.9935608608 0.98666437755 0.98931846213 
0.99333741548 0.99662424969 0.99673439151 0.9971355417 0.99802968049 0.99845246756 0.99843670286 0.99647795493 0.98694226402 
0.98734651911 0.99278549192 0.9951993541 0.9956836306 0.99774793553 0.9989911114 0.99922843494 0.99812153656 0.99745238834 
0.99715949995 0.99486222098 0.99465314124 0.99583266067 0.9963523603 0.99590213264 0.99483543843 0.99320057938 0.99259525671 
0.99494769339 0.99690786712 0.99777842586 0.99849824063 0.99126381259 0.98724026123 0.99113213755 0.99574733852 0.9978650041 
0.99815076677 0.99808087654 0.9983492683 0.99648981404 0.99434469146 0.99312029716 0.99432954198 0.9965810371 0.99689742318 
0.99586050301 0.9945561944 0.99375573095 0.99351186838 0.9947116183 0.99500244919 0.99484870495 0.99532077509 0.9964450004 
0.99643044368 0.99425064687 0.99244821108 0.99406863301 0.99471602973 0.99414967716 0.99626354221 0.99721366244 0.99763746181 
0.99819745996 0.99875645227 0.9986503164 0.99838314175 0.99835077445 0.99872312752 0.99904493669 0.99876362055 0.99852384432 
0.99671692407 0.99376771234 0.99493653598 0.99669193536 0.99683832043 0.99607497895 0.99529409117 0.99316248181 0.99063823866 
0.98900281088 0.98918874474 0.99049188123 0.99189120905 0.99302753671 0.99551371647 0.99643818835 0.99651394581 0.99770544535 
0.9966832983 0.997371777 0.99744705943 0.99725571882 0.99330179905 0.99759861253 0.99768950836 0.99806814445 0.99692972918 
0.98371655834 0.96626302811 0.95791095062 0.96332300857 0.94561867528 0.96265693158 0.9861333246 0.99856810011 0.99772329463 
0.99719739063 0.99755357693 0.99807794083 0.99809415562 0.99822459333 0.99599216615 0.99475303324 0.9957536957 0.99763463554 
0.99815579936 0.99441139088 0.98793827944 0.99209369992 0.99827541467 0.99912064591 0.99867027583 0.99391076583 0.98709084931 
0.98253298007 0.98911983203 0.99396817932 0.99608454922 0.99737114889 0.99734039347 0.99740278213 0.99842895535 0.99842285781 
0.99634190553 0.99595670871 0.99687505253 0.99783612713 0.99861422712 0.99853085828 0.99872552487 0.99786043347 0.99785673506 
0.99805042657 0.99860133501 0.99752610413 0.99681920384 0.99789982389 0.99854699174 0.99183569511 0.99199759942 0.99241132651 
0.99510310863 0.99798099701 0.99597986225 0.99231018027 0.98837388965 0.98768495804 0.99197218171 0.99840407887 0.99886156675 
0.99907008639 0.99889848629 0.99747983734 0.99655659431 0.99530433162 0.99410508772 0.99503059376 0.99663011004 0.99804765161 
0.99709620361 0.99449025413 0.99259558964 0.99247365793 0.99539986392 0.99569275084 0.99569135093 0.99639080521 0.99429820806 
0.99114832768 0.99055390637 0.99214643245 0.9940994436 0.99529188687 0.99535462206 0.99428014637 0.99568542093 0.99363729912 
0.99418903194 0.99729893865 0.99816185324 0.99784954639 0.99877150773 0.99902608005 0.99859595113 0.99839569008 0.99822487109 
0.994704875 0.9958067952 0.99552038927 0.99689918967 0.99822125041 0.99748545615 0.99396174265 0.99098887704 0.98853821575 
0.98732601714 0.98775698063 0.98880197137 0.99081065549 0.9958892154 0.9971561424 0.99676269266 0.99754310994 0.99762283202 
0.99812997404 0.99891817981 0.99881278438 0.99901416418 0.99930817097 0.99301340375 0.99463563879 0.9955871578 0.9975392434 
0.99739923578 0.99765810251 0.9977710793 0.98891627416 0.97571643622 0.96282001377 0.97662655185 0.99080775834 0.99720879481 
0.99698927951 0.99804834959 0.99870607724 0.99879652941 0.99883838969 0.9981692172 0.99699904338 0.99735824556 0.99750818692 
0.99446748502 0.99128567818 0.99324413488 0.99416520837 0.99734676777 0.99747188379 0.99695853849 0.99537240868 0.99020934626 
0.98366378167 0.977180639 0.9807391282 0.99472597136 0.99729523309 0.99640624561 0.99788781945 0.99844311896 0.99775574286 
0.99724816296 0.99747745868 0.99867037365 0.99828904308 0.9966604354 0.99654484877 0.99839240041 0.99870349777 0.99772719017 
0.99533581479 0.99505313375 0.99732738183 0.99898706705 0.99808001869 0.99877667274 0.99934784897 0.99941656907 0.99843921156 
0.99943332691 0.99899203388 0.99721716864 0.99945609876 0.99952205411 0.998473418 0.99774170936 0.99761024977 0.99765840224 
0.9972052807 0.99762759748 0.99757174882 0.99702538417 0.99664343101 0.99801427259 0.99792572598 0.99745029003 0.99875089663 
0.99806516356 0.99906713692 0.99824173117 0.9977093631 0.99757853934 0.99756912612 0.99748543548 0.99565358174 0.99497164801 
0.9938358529 0.99268492926 0.98458018192 0.9901631951 0.99754893444 0.99702708932 0.99772556292 0.99894695242 0.99921293893 
0.99908836032 0.99693830177 0.99593680974 0.99526828967 0.99656937504 0.9957258963 0.99554117584 0.9902025128 0.9979400465 
0.99808052851 0.99784146478 0.99729467389 0.99478695794 0.99489907945 0.99180062853 0.98912423782 0.97993810548 0.99898652787 
0.99717557324 0.9957424041 0.99336443415 0.98698527767 0.99361451352 0.98625525462 0.98893414821 0.9915263259 0.99483527891 
0.99612179044 0.99470966339 0.99189060992 0.99516710491 0.9980946176 0.9989845967 0.99896569032 0.99890299769 0.99902674135 
0.99819218436 0.99473988048 0.99394730867 0.99550969321 0.9975414164 0.99816490559 0.99610693781 0.99402755281 0.9926009584 
0.99309554966 0.99411331099 0.99682883643 0.99865158214 0.99596068527 0.99297992002 0.99107498565 0.99115021269 0.99654822237 
0.99835409333 0.99864454018 0.99829597854 0.998384625 0.99538213181 0.99093558021 0.99154326035 0.997232573 0.99826430748 
0.99796230351 0.9976259797 0.99789127516 0.99799178034 0.99833812041 0.99768895101 0.9958638397 0.99757478794 0.99772566858 
0.99643951664 0.99558584386 0.99409571663 0.99271060801 0.99512749129 0.99677883696 0.99730901264 0.99781543521 0.99602088116 
0.99420655477 0.99196850947 0.98769566807 0.98958617896 0.99127315535 0.991397779 0.99393688369 0.99823166903 0.99814244156 
0.99835276617 0.99782236262 0.99884046262 0.98422476008 0.9922038724 0.99592462739 0.99328802018 0.99538667232 0.99401738934 
0.99177147514 0.99612123971 0.99549434621 0.99346643032 0.9938877245 0.99538137835 0.99746691087 0.99861754631 0.99921441141 
0.99754226018 0.99829751878 0.99754728756 0.99638210818 0.99537917494 0.99540716191 0.9962689739 0.99712344831 0.99696746513 
0.99640919934 0.99648369802 0.99629943349 0.99658530224 0.99692350862 0.99720490371 0.99738285599 0.9948321932 0.99246134855 
0.99396702394 0.99623839637 0.99792546914 0.99933521086 0.99939024799 0.99918025422 0.99593227377 0.99298357942 0.99091678011 
0.99200228949 0.99475122209 0.99807431844 0.99834802457 0.99853199342 0.99638384737 0.99383496137 0.99252859791 0.99575867538 
0.99601472733 0.99770935368 0.99526812474 0.99453503121 0.99399190193 0.9957744968 0.99683267501 0.99509619752 0.99676474966 
0.99833334399 0.99936463698 0.99929554062 0.9986373264 0.99798570702 0.99785608708 0.99709907823 0.99690033178 0.9982193859 
0.99679214048 0.99608186459 0.99530628586 0.99467414751 0.99429227523 0.9944607116 0.9961258626 0.9972348613 0.99712107523 
0.99617312142 0.99579705538 0.99613161819 0.99650341115 0.99672492362 0.9972198985 0.99767025007 0.99955634234 0.99967575656 
0.99969292259 0.99931924827 0.99804688626 0.99881960491 0.99483582854 0.99079499945 0.99262728174 0.99797588503 0.99796757122 
0.9978962478 0.99759772364 0.99240945893 0.98745499833 0.98669758209 0.99033615874 0.99254785024 0.99545062131 0.99808558297 
0.994835397 0.99874538568 0.99775409108 0.99514476196 0.99412974414 0.99640769165 0.99827628428 0.99632817959 0.99459002375 
0.99465114408 0.99430990961 0.99306404492 0.98929238067 0.98888949621 0.98905078441 0.9925750947 0.99733936659 0.99655442586 
0.99613069127 0.99643443006 0.99709778987 0.99479169332 0.99371568783 0.99637534737 0.99386767201 0.99000834053 0.99019379957 
0.99259736285 0.99510758688 0.99443106858 0.99605084532 0.99666864483 0.99737083447 0.99768668119 0.99798269632 0.9975943086 
0.99674002605 0.99243548695 0.98329456284 0.98841199317 0.98147184597 0.99207185883 0.98799474714 0.99216471804 0.99560002028 
0.99920332706 0.99791921205 0.99647998222 0.99705648314 0.99851171586 0.99912568708 0.9988226771 0.99987774681 0.99961223373 
0.99947119187 0.99905525729 0.9985365045 0.99701823648 0.99483849362 0.99677222582 0.9967231959 0.99637370764 0.99654168773 
0.99666842152 0.99665054164 0.99683475994 0.99522838888 0.99445616627 0.99468461298 0.99534518615 0.99624381106 0.99715298699 
0.99722686704 0.99805904513 0.99812635951 0.99520999975 0.99654067507 0.99697868317 0.99768930307 0.99776593977 0.99843582049 
0.99956731477 0.99560014919 0.99313447131 0.9910047386 0.99755026674 0.99455726339 0.99736000385 0.99468167281 0.99126757921 
0.9878290404 0.98518774167 0.98652107749 0.98913930656 0.99113973753 0.99705531551 0.99852356001 0.99775177651 0.99786948291 
0.9981835344 0.99841150483 0.99736713894 0.99605686534 0.99686345774 0.99784573205 0.99745865835 0.99807579099 0.99821028618 
0.99809659249 0.99811010197 0.99757089732 0.9974904807 0.99767787931 0.99774113331 0.99289868523 0.99340283278 0.99474777844 
0.99728313604 0.99282618585 0.99487573267 0.99468953337 0.9951958665 0.99460220233 0.99409900131 0.98671335054 0.9892360046 
0.99507751382 0.99444130732 0.99569778218 0.99798412947 0.99811288852 0.99697333676 0.99511024008 0.99685867204 0.99969489827 
0.99958787073 0.99679131086 0.99549359256 0.9969785321 0.99731866151 0.99595114747 0.9898379241 0.99621419236 0.99460380702 
0.99507867401 0.99591788328 0.99589059431 0.99376945813 0.99267719394 0.9938986032 0.99801511061 0.99524482374 0.99493093424 
0.9963572645 0.9955774258 0.99787149401 0.99745716687 0.99743828566 0.99748040615 0.99653172359 0.99474557573 0.99576825565 
0.99746746759 0.99272298957 0.99540771437 0.99682441038 
Circumferential 3 1147 double
0.7332757558 0.2932204798 -0.61345612409 0.7314984339 0.32018385424 -0.60167742343 0.74002076242 0.29286059725 -0.60487031942 
0.717571184 0.27299641875 -0.64033771773 0.7477471165 0.34398364563 -0.56612266252 0.75325611864 0.31350856946 -0.57746175411 
0.76952525289 0.36971294053 -0.5201333772 0.76183648679 0.34437727141 -0.54821929861 0.74309114241 0.42082841707 -0.51940210637 
0.76285524903 0.38687193789 -0.51721612128 0.76674757239 0.43333312462 -0.47006691073 0.78143511269 0.41437692367 -0.46340419033 
0.80319488702 0.4470176565 -0.38245433705 0.81084995766 0.43085849817 -0.39466940354 0.82798801072 0.50443182652 -0.22473602623 
0.81826921388 0.46766269679 -0.32917478414 0.82437360948 0.54879298418 -0.10845977744 0.80030289107 0.54154691573 -0.23883545472 
0.81161145787 0.57912559266 4.9871595509e-05 0.79165081072 0.59356735559 -0.12290829015 0.80491733761 0.5585307079 0.14791007467 
0.79741210815 0.57816728076 0.067336452293 0.78491489806 0.53197890945 0.29584852998 0.79221740715 0.5347041642 0.28603187806 
0.73253165927 0.49093320715 0.44397736746 0.742400154 0.46371389594 0.44868258249 0.68762416925 0.4636212422 0.55837913162 
0.69544949405 0.42495252611 0.57527559478 0.66421441142 0.47580287066 0.57579321344 0.63349350286 0.40485513696 0.6549095458 
0.63643221828 0.47734153258 0.60367492006 0.57529214183 0.39562614842 0.71477724883 0.59793974966 0.45281025969 0.6571970621 
0.51788026228 0.3746720049 0.76360195192 0.56281582845 0.42833253904 0.70668281993 0.46462461585 0.35020713986 0.81143439457 
0.54933590535 0.40419890864 0.73023351395 0.37342270522 0.30255050214 0.86526727134 0.53585598226 0.38006527825 0.75378420797 
0.26845661622 0.24079145134 0.92575460967 0.25864484348 0.21329284324 0.8572792705 0.15503579095 0.14620985365 0.96725443846 
-0.040716383625 0.034540551715 0.96748864943 0.045042950741 0.048954250446 0.99221419992 -0.13778295324 -0.0065883568582 0.98982457326 
-0.025775916144 0.001034412647 0.99725352968 -0.17175782426 -0.0047952569959 0.98475450619 -0.068396242465 -0.018465515543 0.99650009331 
-0.18846059579 -0.0063313503341 0.98203387368 -0.11175616051 -0.01585961619 0.99284186412 -0.19576419946 -0.009679131111 0.98059176147 
-0.15294869911 -0.0014574453119 0.98784706457 -0.16834841728 0.032040465319 0.98359654955 -0.18831931974 0.013753703506 0.98127075045 
-0.13660318248 0.0806016116 0.98706579456 -0.21887906204 0.035557588604 0.9747200197 -0.19838239143 0.032516950667 0.97673151889 
-0.27505994054 -0.004562101069 0.95780085897 -0.26487759649 -0.016591825098 0.96245179066 -0.33582958173 -0.050933427028 0.93974956844 
-0.35919511856 -0.07174243074 0.92489561533 -0.41801522533 -0.13127136984 0.89338810126 -0.43942313285 -0.12405944896 0.88793930394 
-0.48368502655 -0.19001022074 0.85277173393 -0.48963945827 -0.17034072352 0.85226072958 -0.52828632117 -0.22219701284 0.81712756998 
-0.54753311346 -0.21972026055 0.80210339944 -0.56511908716 -0.25852105713 0.78138061823 -0.61817449445 -0.2742442686 0.72790500184 
-0.6107422692 -0.30444654732 0.72636293104 -0.68074949645 -0.32898360401 0.64878682969 -0.66688887259 -0.34570263806 0.65734451107 
-0.72528710369 -0.38420443734 0.55866744919 -0.720098305 -0.38522063308 0.56825335158 -0.76791429263 -0.43424085622 0.46630668068 
-0.76883739306 -0.42440814774 0.47425411826 -0.80142430944 -0.45953546907 0.36324923899 -0.80119541182 -0.45795036662 0.3692988075 
-0.83493432626 -0.48483008191 0.26019179729 -0.82964376934 -0.48871266859 0.26504156801 -0.84142700056 -0.5036996927 0.16921304767 
-0.84005679997 -0.50639008595 0.17754112714 -0.84779391521 -0.52253939655 0.07829052164 -0.84626203641 -0.52306679383 0.09257751609 
-0.83995187418 -0.53108276654 -0.024803222272 -0.83756395365 -0.53728716518 -0.010081238596 -0.83017808881 -0.53822632325 -0.1295516748 