# vtk DataFile Version 5.1
vtk output
ASCII
DATASET POLYDATA
POINTS 1126 double
40.976348877 76.309928894 32.467594147 42.105953351 76.298388422 31.478107895 41.368997548 75.173012497 30.80638957 
40.223894875 75.255014055 31.897834119 43.235325137 76.211566108 30.499365776 42.540409452 75.067947329 29.761087446 
44.364122829 75.939006164 29.547131908 43.788581076 74.813107996 28.844001226 45.563816722 75.706912959 28.693765874 
45.079933725 74.603425407 27.98561173 46.909524607 75.558162871 28.044022701 46.488466278 74.356913731 27.355241284 
48.292104243 75.453782062 27.487265715 47.945972133 74.202042318 26.808706676 49.744957678 75.433964579 27.107730924 
49.467933224 74.091379226 26.463646199 51.212508775 75.426350141 26.811513097 51.005815342 74.043129709 26.193098195 
52.707644778 75.441638656 26.67166645 52.559336025 74.007185231 26.038475967 54.198812422 75.368279834 26.567530468 
54.106198277 73.971268864 25.885960251 55.683293781 75.145559197 26.523563351 55.653075598 73.885113584 25.852001351 
57.15763076 75.036519236 26.624534877 57.18766581 73.843752563 25.962238633 58.614242043 75.12611825 26.978763728 
58.714617486 73.898397047 26.260088723 60.007851275 75.222222327 27.468667086 60.183570287 73.945624489 26.788117633 
61.22207343 75.336848408 28.344879338 61.55645144 73.968083979 27.605153555 62.411941493 75.469905626 29.245923013 
62.822235907 74.056447772 28.631238911 63.446945885 75.720163421 30.304865617 63.880234233 74.339600191 29.885291687 
64.465261682 75.960197889 31.37917956 64.760098799 74.523067852 31.093074547 65.308731344 76.093122727 32.614538783 
65.554545397 74.630972519 32.373330533 66.119587444 76.217636354 33.87068173 66.230932358 74.693226696 33.701745816 
66.84015967 76.31886529 35.184360101 66.82021609 74.743899818 35.054947555 67.407755226 76.411878298 36.556520532 
67.265397751 74.799184796 36.467860531 67.73878672 76.492186148 38.019117979 67.576150194 74.831248265 37.915222934 
67.975048739 76.481053701 39.49341002 67.73867516 74.800669835 39.390474932 68.071743934 76.335257307 40.984924667 
67.801537275 74.695478283 40.869838034 67.995594435 76.160138928 42.465863021 67.767501508 74.547250895 42.347983304 
67.776118631 75.960706169 43.938031299 67.622499062 74.372338166 43.810848152 67.398108019 75.72646712 45.370581299 
67.189683185 74.214179428 45.225675888 66.959231756 75.537451277 46.789636045 66.712866355 74.088052993 46.625502501 
66.409454102 75.533845418 48.187117358 66.120342347 74.044530539 47.974499542 65.677388609 75.526835004 49.486015508 
65.317395329 74.069263209 49.224181605 64.809041141 75.517279277 50.711210943 64.421175061 74.12183472 50.400102832 
63.738938122 75.74262606 51.733639522 63.361311404 74.275212753 51.40472277 62.612332532 75.949414378 52.69442317 
62.244361495 74.405095133 52.34973948 61.334383623 75.977267739 53.482644756 61.011257212 74.486847869 53.144807059 
59.977748569 76.014733439 54.10130772 59.696288344 74.548667516 53.801517354 58.552349602 76.060599373 54.571793208 
58.321163892 74.60118467 54.336647156 57.093463932 76.112464502 54.921247898 56.88339272 74.654198282 54.701269778 
55.61879624 76.145397056 55.165377748 55.425254928 74.684153109 54.985339925 54.117529902 76.13234117 55.200753127 
53.940127709 74.699569983 55.083041573 52.621990624 76.13976465 55.089610952 52.446087375 74.714809856 55.058063768 
51.135315681 76.142715536 54.889578766 50.953479047 74.735669288 54.935989409 49.663596048 76.124536718 54.591361824 
49.469203255 74.785806948 54.690639372 48.255041955 76.248541499 54.095053591 48.015143708 74.877069594 54.310735619 
46.873574898 76.343443719 53.520201151 46.597803479 74.978653931 53.817749931 45.516701628 76.368053757 52.877152345 
45.267158269 75.046170469 53.110357523 44.286828839 76.550136704 52.038387067 44.052816412 75.150928391 52.230687639 
43.102890382 76.688558435 51.130218231 42.905588334 75.249921808 51.258003496 41.966095979 76.755086648 50.151190665 
41.813297029 75.299822691 50.205851701 40.98217238 76.821130211 49.022163632 40.797864581 75.383920635 49.087750059 
40.098791254 76.900609684 47.823119994 39.82657273 75.502683578 47.935337557 39.51752278 77.035511839 46.445023167 
39.109629956 75.609422001 46.594818466 38.978368427 77.141805516 45.048231383 38.485344255 75.700918916 45.193940907 
38.470846648 77.226610918 43.637397523 38.025417572 75.732304393 43.73864259 38.282806904 77.116369725 42.155271422 
37.789031076 75.672802068 42.218380922 38.147088302 77.002315755 40.664830608 37.639983846 75.59681656 40.680852922 
38.084215646 76.916739742 39.166849877 37.599557232 75.519432907 39.133277865 38.273527957 76.759526302 37.697084584 
37.65142669 75.452060692 37.580528622 38.618813255 76.586733422 36.250359931 37.835373318 75.426171442 36.025637618 
39.24681154 76.595717543 34.886263185 38.42378235 75.348869834 34.52783873 40.05532955 76.488905698 33.640161073 
39.245862749 75.320159897 33.147158019 37.233211517 53.232025146 30.384008408 36.754896519 53.20302578 31.835457795 
37.172341056 54.639934772 32.114680026 37.687200936 54.686110209 30.753008999 36.47812194 53.186737979 33.324056771 
36.8517832 54.629980008 33.544368063 36.409460469 53.183576294 34.851016866 36.775093295 54.593176358 35.030406838 
36.251645669 53.123845569 36.36928677 36.639797418 54.524193592 36.525479207 36.0722671 53.050432329 37.885454752 
36.474063886 54.387771803 38.007224503 36.050411193 52.682242648 39.367191388 36.524787024 54.084992055 39.470139533 
36.098926313 52.30256531 40.838382937 36.672066623 53.755907798 40.907493514 36.538139145 51.928445204 42.253818474 
37.046518701 53.410080318 42.311830404 37.149777845 51.569774591 43.592389134 37.591529808 53.076127224 43.678668695 
37.962370682 51.229109626 44.84137744 38.433355526 52.753784381 44.847171497 39.056280659 50.94588141 45.858704176 
39.476482499 52.460386458 45.871585417 40.256594026 50.708079297 46.753090989 40.639442172 52.247270323 46.79118358 
41.656259061 50.595774764 47.356959358 41.976672365 52.099380063 47.394154607 43.112612004 50.56018852 47.77673557 
43.363872218 52.025573436 47.915875263 44.618927765 50.592219197 48.034259144 44.800822436 52.001129048 48.289200054 
46.143690356 50.604226341 48.098949135 46.304298174 51.967875623 48.405282025 47.666972305 50.59865614 48.056915847 
47.80783549 51.939611882 48.414622218 49.176835344 50.55548429 47.822861751 49.324417351 51.877246362 48.320830113 
50.681669677 50.401817173 47.610154078 50.844084044 51.783082096 48.146763836 52.187204095 50.253265133 47.39460683 
52.382347423 51.66987133 47.961798278 53.689988055 50.146855886 47.144622042 53.928217095 51.565297556 47.732730288 
55.164168745 50.078674573 46.746533953 55.46873974 51.49156839 47.393119709 56.582727004 50.053221253 46.183660889 
56.946495257 51.47677736 46.82981074 57.982799975 50.034791708 45.570910553 58.355017865 51.418560294 46.12576512 
59.370864608 50.017579452 44.932969528 59.704641174 51.374177787 45.355549653 60.653283074 50.066766134 44.102719522 
60.928197876 51.435354317 44.438164128 61.788116719 50.220354841 43.12304856 62.022461123 51.588853634 43.393831184 
62.748182183 50.497575176 41.966435091 63.031233809 51.765595344 42.27067573 63.50727857 50.605528504 40.649666043 
63.751526034 51.968306911 40.929789264 64.118377266 50.748564053 39.271508046 64.325346673 52.189389868 39.525738561 
64.460910107 51.0318217 37.809055351 64.693888875 52.468554845 38.056445613 64.569517498 51.313005831 36.31536706 
64.846855963 52.76933628 36.54521679 64.53846066 51.570145393 34.814705762 64.845559631 53.040743011 35.020327858 
64.307407086 51.76801429 33.316775967 64.63914582 53.255093714 33.501147346 63.823059891 51.975949422 31.893024894 
64.139472988 53.474204882 32.05084785 63.214617059 52.18899046 30.508709949 63.510670999 53.66804576 30.651002779 
62.282035673 52.420582086 29.320017893 62.589184494 53.899836943 29.449918961 61.317657017 52.648062315 28.157315455 
61.594478933 54.133819397 28.309504259 60.303230942 52.869071399 27.035519462 60.51067922 54.390547606 27.257213268 
59.063733554 53.113152329 26.193126956 59.28373676 54.681718428 26.391812551 57.750942463 53.340345839 25.447221734 
57.962601872 54.976382557 25.643749436 56.383899721 53.505910309 24.783810795 56.544288411 55.168578232 25.024881151 
54.950521567 53.6924183 24.302464458 55.08429578 55.312761997 24.543345871 53.484464697 53.879800067 23.916606362 
53.59565812 55.425864844 24.166647023 51.987724055 54.028551569 23.644628481 52.08320812 55.533718792 24.002284048 
50.480778932 54.146766138 23.654072542 50.568085566 55.631177625 24.000134946 48.969758136 54.229846019 23.85760259 
49.054653583 55.687669761 24.149012228 47.485638009 54.142538286 24.212703047 47.568118341 55.660407046 24.485771621 
46.021298451 54.04504353 24.635547868 46.105321193 55.594628828 24.926726448 44.576238415 53.94058513 25.120399962 
44.671400513 55.498533313 25.446303526 43.190266033 53.84269249 25.757447145 43.328071343 55.362087511 26.150408456 
41.867377829 53.745397535 26.507771121 42.014419119 55.221761885 26.888295292 40.596896197 53.647143468 27.35180648 
40.747851801 55.079014266 27.678726484 39.355163049 53.456327916 28.22244977 39.602093162 54.902731384 28.601024787 
38.228867617 53.315749935 29.227292964 38.558983552 54.768036382 29.604366336 41.804399499 74.017617911 28.942353521 
40.596488182 74.101484143 30.049957958 43.144986217 73.740461432 28.014848701 44.515744167 73.485027753 27.169161606 
46.002766406 73.158971518 26.537274208 47.546034935 72.923971703 26.000577265 49.156902939 72.776911117 25.6581551 
50.777586156 72.713152195 25.394136376 52.401115592 72.658725704 25.227640567 54.014714857 72.636666926 25.085392909 
55.620486714 72.643429573 24.997674484 57.230365718 72.659465895 25.070549961 58.824919736 72.727232678 25.314749613 
60.396829696 72.730594758 25.842150156 61.90889887 72.68907691 26.598900371 63.543427199 72.459141341 27.799914198 
[...]
POINT_DATA 1126
FIELD FieldData 21
Circ_Strain_Pt 1 1126 double
0.99934577013 0.99832354592 0.99887940925 0.99920256823 0.99761932581 0.99842238035 0.99769969505 0.99824348356 0.99794263417 
0.99820467687 0.99852039342 0.99870633933 0.99890843776 0.99929633613 0.99893490482 0.99940252102 0.99906448042 0.99938883099 
0.99938757246 0.99942361478 0.99899002629 0.99940630981 0.99737827747 0.99791646947 0.99557609115 0.99592246888 0.99344114544 
0.9940206943 0.99278755298 0.99354148358 0.99635184889 0.99590202653 0.99932123931 0.9974636823 0.99850772372 0.99797508113 
0.99779321245 0.99830633494 0.99811598033 0.99854546127 0.99807555084 0.99865034007 0.99702968507 0.99847958246 0.99683822166 
0.99826983315 0.99796801129 0.99836775571 0.99862589884 0.99868461879 0.99858881708 0.99869036662 0.99882500432 0.99749989898 
0.99928779172 0.99698004523 0.99845326572 0.99783681524 0.99736440318 0.99815208607 0.99624067462 0.99765737601 0.9963022114 
0.99761831845 0.99724987585 0.99813350518 0.99800309514 0.99835393845 0.99848377441 0.99858721424 0.99790031801 0.99841571945 
0.99813786587 0.99857166684 0.99909289029 0.99914477851 0.99886061342 0.99891181861 0.99881745174 0.9990393307 0.99957745951 
0.99928780605 0.99965355095 0.99912353311 0.99951319922 0.99865741613 0.99932393797 0.99794131996 0.99920451352 0.99763859253 
0.998921509 0.99779639254 0.99839572877 0.99886903652 0.99831263 0.99897888493 0.99791530164 0.99854059767 0.99706779269 
0.99761851721 0.996782729 0.99712604499 0.99668741017 0.9966756626 0.99696509959 0.99703546676 0.99528361191 0.99687138377 
0.99213055568 0.99571300761 0.99472271762 0.99613757026 0.99683913012 0.99883146661 0.99659165231 0.99835494254 0.99692665034 
0.99728154817 0.99745555544 0.99691460032 0.99711982962 0.9977458427 0.99788862673 0.99868990716 0.99378027798 0.99416014417 
0.99411842967 0.99396369391 0.99503509974 0.9952313151 0.99642129066 0.99578182877 0.99761378729 0.99588128537 0.99875943452 
0.99571154903 0.99794256771 0.99622405492 0.99706424536 0.9972624807 0.99631500692 0.99691392433 0.99613597272 0.99666451922 
0.99662148441 0.9964384556 0.99655837975 0.99656990945 0.99632845446 0.99705417576 0.99585531231 0.99761382289 0.99618417342 
0.99748868513 0.99721989325 0.99634839765 0.99752095688 0.99642431252 0.99770697706 0.99710576186 0.99795423478 0.99835905036 
0.99913840386 0.99909743809 0.99963280868 0.99959565041 0.99907928481 0.99929227912 0.99853210723 0.998292859 0.99888387892 
0.99868299773 0.99920650257 0.99890604625 0.9991917178 0.9980814743 0.99649565411 0.99768874975 0.99562126426 0.99758521444 
0.99690407891 0.99693736897 0.99693772062 0.99644941685 0.99696589068 0.99695399761 0.99742241668 0.99843957187 0.9979738726 
0.99848144422 0.9982493736 0.99815766381 0.99776742933 0.99739323656 0.99696299368 0.9969692052 0.99606789398 0.99677362888 
0.99695158707 0.99741497391 0.99696250921 0.99766658626 0.9955997308 0.99739295111 0.99643113118 0.9978008283 0.99765942135 
0.99874800649 0.99854194782 0.99893048175 0.99881062054 0.99886117863 0.99850645863 0.99852869555 0.99653469749 0.99782624315 
0.99608387741 0.99770935362 0.99670357661 0.99830786763 0.99837851439 0.99914467042 0.99936785944 0.99905379186 0.99979045475 
0.99880935774 0.99943111616 0.99896770576 0.99926984408 0.99926559425 0.99926211821 0.99880703194 0.99864340231 0.99717249286 
0.99686694209 0.99497561099 0.99806060757 0.99807011847 0.99821222303 0.99848250453 0.99910023138 0.99966339596 0.9997917894 
0.99974432586 0.99947833378 0.99888704329 0.99793772206 0.99643212034 0.99509128189 0.99484896509 0.99602603937 0.99568277047 
0.99606990373 0.99755835853 0.99880566301 0.99921047562 0.99928659411 0.99924964382 0.99920937223 0.99848466457 0.99694402765 
0.99542972172 0.99424944654 0.99653673991 0.9981988562 0.99781811195 0.9975654286 0.99771067551 0.99792844331 0.99802452908 
0.99835051649 0.99862400708 0.99851566326 0.99798663798 0.99827539693 0.99890850741 0.99911396304 0.99912602956 0.99896407152 
0.99697490817 0.99582528955 0.99687892887 0.99789187135 0.99821031989 0.99854679579 0.99898451492 0.99885976486 0.99845707857 
0.99760023527 0.9968509854 0.99733602308 0.99706549617 0.99758645333 0.99650576914 0.99494946401 0.99557178742 0.99809464706 
0.99837780474 0.99361311415 0.99271888533 0.9947213477 0.9956999104 0.99580956867 0.99628945482 0.99704692368 0.99705662053 
0.99662899137 0.99649174648 0.99638403156 0.99732062471 0.99826935379 0.99856638586 0.9979663623 0.99766537657 0.99882218151 
0.99910801738 0.99931805981 0.99969168902 0.99936516325 0.99862815519 0.99896592535 0.99836313744 0.99711199779 0.99737766997 
0.99770289561 0.99746124254 0.9971916948 0.99818656769 0.99868129546 0.99811717188 0.99710348231 0.99652302418 0.99631426893 
0.99695503033 0.99760090436 0.9983951762 0.99824104042 0.99838803583 0.99828170693 0.99834266509 0.99821148319 0.99848966681 
0.99825601024 0.99827193749 0.99808866704 0.99895421339 0.99948687809 0.99930349221 0.99933972526 0.99888174984 0.99808089008 
0.99619842566 0.99441143297 0.99277052731 0.99760899303 0.99761791389 0.99768064965 0.99834246822 0.99919831045 0.99973113887 
0.99988018959 0.99929899768 0.99869037445 0.99754766353 0.99572901066 0.99411726037 0.99356376532 0.99455967842 0.99416736145 
0.9964205906 0.99628051084 0.99724857936 0.99848882794 0.99860819914 0.99888568156 0.99866870422 0.99861278205 0.99860430801 
0.99677330489 0.99584177041 0.99675976032 0.99831954423 0.99884562895 0.99868207451 0.99856487159 0.99815062859 0.99827664519 
0.99867691168 0.99886138932 0.99861277986 0.99850934734 0.99829688488 0.99856458041 0.99897597955 0.99908151472 0.99781802096 
0.99410484085 0.99269947202 0.99576955448 0.99832183079 0.99798955878 0.99808647365 0.99881472135 0.99938028364 0.99858344694 
0.99748207676 0.99733144917 0.99766530744 0.99775448932 0.99772054773 0.99758712729 0.99516494345 0.99446942815 0.99691312512 
0.99768968317 0.99775566232 0.99586678706 0.99612863024 0.99644076635 0.99223378709 0.99825127306 0.99731772479 0.99677718074 
0.9973709933 0.99748045987 0.99859846414 0.99828743129 0.99788273091 0.99796845072 0.99845584458 0.99861028518 0.99857329375 
0.99839773433 0.99849076457 0.99893123957 0.9987846841 0.99840711573 0.99860300588 0.99879727301 0.99904965233 0.99842805972 
0.99830380299 0.99859226438 0.99833713517 0.99732286023 0.99707133121 0.99747394406 0.99865751585 0.99853883429 0.99822445389 
0.99745205447 0.99654984262 0.99627271377 0.99598880977 0.9959128886 0.99685368972 0.99798931618 0.99902050805 0.99921976715 
0.99824673035 0.99767681735 0.99743830292 0.99807778329 0.99908802215 0.99915163775 0.99913780121 0.99891207967 0.99871084654 
0.99878649596 0.99827210443 0.99536924029 0.99261480632 0.99079207296 0.99097255188 0.99656587235 0.99854783506 0.99666657525 
0.9972305817 0.99800698843 0.99866243709 0.99906888995 0.99872893412 0.99804699828 0.99756641351 0.99741611635 0.99709770832 
0.9972698615 0.99870788546 0.99932467804 0.99952954617 0.99890087263 0.9983352436 0.99822936698 0.99838942867 0.99883566165 
0.99904312465 0.99892299065 0.99841338942 0.99783251664 0.99747583904 0.99777120141 0.9981616392 0.99711489644 0.99417748352 
0.99288917932 0.99566066362 0.99825575497 0.99840336849 0.99859948232 0.99887161326 0.99890135809 0.9981912342 0.99795972913 
0.99769748782 0.99790180941 0.99890492747 0.99907727468 0.99881810454 0.99708131541 0.99489812729 0.99751141659 0.99650215729 
0.9976238072 0.99777022263 0.99774154753 0.99738349522 0.99743879608 0.99891058886 0.99961205002 0.99972027567 0.99976442111 
0.9991373149 0.99870573916 0.99572507424 0.99167273197 0.99039762394 0.99284395936 0.99540942767 0.99545262506 0.99617036323 
0.99897129556 0.99847171223 0.99809758574 0.99469795562 0.99234030895 0.9985821252 0.99591357861 0.99763644563 0.99685935434 
0.99702667145 0.9976337834 0.99831259123 0.99851545163 0.99852707789 0.99849802079 0.99823307812 0.99782039111 0.99856536779 
0.99846020022 0.9982178076 0.99861845451 0.99842105768 0.9982913661 0.99853485611 0.99883542725 0.99880502618 0.99856452626 
0.99842980246 0.99904185144 0.99900366885 0.99826064974 0.99695413298 0.99704370632 0.99844199351 0.9984987471 0.99770293793 
0.99487053226 0.9947405472 0.99487016402 0.9963721789 0.99689316539 0.99696103478 0.99712542127 0.99812988508 0.99901724132 
0.99785553815 0.99919617699 0.99644705428 0.99716267068 0.99847816699 0.99914187322 0.99881365898 0.99877832252 0.99881714818 
0.99903452867 0.99884568314 0.99444426796 0.99044328424 0.98727777076 0.98907248022 0.99246951264 0.99916365426 0.99875018805 
0.99874829254 0.99942905177 0.99882260488 0.9983815793 0.99774872015 0.99717840692 0.99681590958 0.99739579381 0.99762712094 
0.9974484614 0.99740680832 0.99748347176 0.99850696252 0.99922161299 0.99951946115 0.99892085088 0.99832298888 0.99846401279 
0.9989537901 0.99910565389 0.99917736604 0.99906460374 0.99900268488 0.99908261425 0.99845734206 0.99786654238 0.99752598704 
0.99617265653 0.99423176434 0.99533761161 0.99682548106 0.99753387106 0.99810644851 0.99863026485 0.99889686635 0.99902613011 
0.99827105745 0.99744217145 0.9981693882 0.99859730142 0.99875118448 0.99796947543 0.99706987551 0.99408911984 0.99052889774 
0.99005457762 0.98778774376 0.99391758122 0.99765841498 0.99808730617 0.99800818018 0.99759406859 0.9970314507 0.99624914945 
0.99574544177 0.99704865296 0.99962609643 0.99902275574 0.99953416822 0.99937851814 0.99883480946 0.99534819621 0.99184177564 
0.99065754488 0.98978145275 0.99183500936 0.99528618332 0.99863588859 0.99762562609 0.99664506078 0.99768022219 0.99874084706 
0.99841442035 0.99876038491 0.99928602073 0.99921608738 0.99882178038 0.99876381596 0.99853152184 0.99893448849 0.99913668904 
0.99904899328 0.99876584393 0.99804297442 0.99844476288 0.99833629624 0.99518689569 0.99095910841 0.98737653371 0.985992607 
0.98718982395 0.9948802577 0.9989101804 0.99893145977 0.99677236044 0.9965449637 0.99844789483 0.99932487051 0.99933867184 
0.99926794221 0.99895593338 0.99885580951 0.9984847881 0.99743090725 0.997694994 0.99801676986 0.99774723245 0.99759936237 
0.99749058886 0.99751062435 0.99792007742 0.99783880648 0.998755328 0.9987979693 0.99967528864 0.99918948276 0.99912551648 
0.99874241784 0.99892735027 0.99921448901 0.99914291894 0.9985920607 0.99712180731 0.99706246688 0.99844392878 0.99953693763 
0.99659712392 0.99701465779 0.99571141926 0.99718154464 0.99706892916 0.99669989771 0.99636071472 0.99670344891 0.99701611414 
0.99800911638 0.99546479022 0.99687728245 0.99864515358 0.99904256586 0.99941442577 0.99487407044 0.99653286814 0.99620256741 
0.99288354899 0.99353490793 0.99476659012 0.99663407062 0.99759892363 0.99828265931 0.9981978309 0.99906605658 0.99941416768 
0.99960217928 0.99894830018 0.99857250893 0.99826786094 0.99858546611 0.99898807601 0.99921464826 0.99928144957 0.99933230025 
0.9990736566 0.99821678785 0.99742398348 0.99684988278 0.9964654835 0.99625791561 0.99658411658 0.99700475737 0.99761670641 
0.99844079383 0.99911220119 0.9994010566 0.99950458062 0.99946293428 0.99805018952 0.99703484939 0.99719252037 0.99858999311 
0.99915767847 0.99904107253 0.99687493986 0.99308302268 0.99071210351 0.99200385347 0.9895584704 0.98781850377 0.99218469552 
0.99318529063 0.9946216685 0.99698730142 0.99771656719 0.99794411772 0.99816070364 0.99791252516 0.99761802765 0.99770657329 
0.9980661212 0.99955331676 0.99875715604 0.99957745547 0.99934165259 0.99916668852 0.99790582641 0.99332348119 0.99002074625 
0.98990983689 0.99173025875 0.99452235476 0.99363080611 0.99346022912 0.99688017285 0.99803392711 0.99696513813 0.9987293451 
0.99732953881 0.99963300418 0.99975962957 0.9998531811 0.99965874601 0.99922342236 0.99784654538 0.99726804538 0.9977269314 
0.99629742247 0.99389482352 0.9904813362 0.98637091934 0.98455333449 0.98844148825 0.99773899907 0.99825074869 0.99716099189 
0.99766127566 0.99717525728 0.99830236984 0.99909527572 0.99942697977 0.99943918171 0.99957163617 0.99948040789 0.99908030383 
0.99748695206 0.99589007106 0.99679785708 0.99742625881 0.99762838596 0.99781666698 0.99692161753 0.99623886402 0.99773358878 
0.9958465185 0.99855766842 0.99852697896 0.99970071421 0.99895070902 0.99902631898 0.99861802151 0.99817428148 0.99735633245 
0.9968226109 0.99698155374 0.99840399393 0.99915673483 0.99928981532 0.994687836 0.9921931162 0.99264353909 0.9928778057 
0.99362331001 0.99569130026 0.99728733818 0.99805106664 0.99823614848 0.998204194 0.99486718963 0.99168631698 0.99049162014 
0.99037515875 0.99148136191 0.9997978144 0.9941961287 0.99926105327 0.99924905574 0.99859787611 0.99742486088 0.99767630629 
0.99841136125 0.99877646251 0.99912732634 0.99929260963 0.99921993559 0.99868913951 0.99829581299 0.99729495336 0.99929120031 
0.99590230227 0.99124458642 0.99304919322 0.99107754514 0.9927752636 0.9937488355 0.99520032511 0.99640149227 0.99375000574 
0.99035841273 0.98868150834 0.99994788332 0.99994042681 0.99990335503 0.99899684372 0.99745154605 0.99642472429 0.99610468382 
0.99678170814 0.99683121657 0.9974979423 0.99799287213 0.99841760247 0.99501144776 0.98929505438 0.98439297142 0.98651431205 
0.98887863419 0.99460061392 0.99792713526 0.99829020956 0.99873967101 0.99776361049 0.99798550423 0.99823649728 0.99908130826 
0.99964668526 0.99977472846 0.99951143694 0.998514006 0.99754679073 0.99666220804 0.99713344695 0.99697727476 0.9972671348 
0.99754274705 0.99580830564 0.99625764126 0.99577894045 0.99736673995 0.9972783122 0.99624568663 0.99813293056 0.99947081572 
0.99872954092 0.99917547917 0.99863542254 0.99960372195 0.99958115806 0.99923937369 0.99969650266 0.99891181554 0.99930832932 
0.99957796257 0.99965537783 0.99897073749 0.99842667923 0.99873091687 0.99903039601 0.99896531044 0.99899660928 0.99902471315 
0.9988815772 0.99856764913 0.99847448023 0.99816018395 0.99768946785 0.99689413339 0.99608708046 0.99596792679 0.997233981 
0.99763231325 0.99843758972 0.9992162593 0.99944468228 0.99922299779 0.99763905828 0.99690403674 0.99821982702 0.99868054651 
0.99859113847 0.99901279693 0.99735667617 0.99457474776 0.99694335781 0.99050770997 0.98893823553 0.98742495126 0.98852379465 
0.99050597168 0.99080511907 0.99523179057 0.99553140481 0.99585021481 0.99620191576 0.99602890027 0.99737424055 0.99709660353 
0.99357490196 0.99560205038 0.99641046968 0.99715341723 0.9972270314 0.99670646337 0.99955939322 0.99895366844 0.99840120243 
0.9983639638 0.99885110436 0.99894551346 0.99877962698 0.9987385618 0.99874657288 0.99851667081 0.99791483603 0.99781826625 
0.99791358967 0.9972768411 0.99585432208 0.99462935885 0.99446638545 0.99583007946 0.99856930134 0.99971597517 0.99970795229 
0.99969045595 0.99978276012 0.99857308979 0.99776151858 0.99790998933 0.99835638259 0.99681124939 0.99858478256 0.9983274606 
0.99800985583 0.99821510395 0.99855131595 0.99915938322 0.99975026854 0.99981027967 0.9997667587 0.99979286885 0.99925026663 
0.99790009986 0.99604295365 0.99583729263 0.99706885984 0.9974242771 0.99802155176 0.99672993991 0.99668645756 0.99661543272 
0.99677153033 0.99700599142 0.99734864007 0.99866396387 0.99688455796 0.99809442457 0.99883444335 0.99319619361 0.99310453103 
0.99615054233 0.99876489936 0.99915221976 0.99878251244 0.9987567545 0.99802509342 0.99852669874 0.99812643 0.99533148464 
0.99452196002 0.98917633511 0.9915682751 0.99661782491 0.99728997548 0.9980185435 0.98723413698 0.99180766753 0.98570679296 
0.99581347658 0.99173513476 0.9963175839 0.98779672549 0.99264247876 0.99505463543 0.99773333116 0.99768543995 0.99729338959 
0.99727075679 0.99767909507 0.99871745904 0.9991431623 0.99887624136 0.99884224681 0.99863477237 0.99839318095 0.99818208886 
0.99805658132 0.99783443924 0.9980175894 0.99946955481 0.99986558749 0.9998453463 0.99971322164 0.99981367847 0.99925014025 
0.99783377993 0.99586164945 0.9966644226 0.99975392461 0.99973653236 0.99975032834 0.99822642183 0.99852085634 0.99879032012 
0.99748340445 
Circumferential 3 1126 double
0.75740290095 0.046300621437 -0.65130415321 0.80653230609 0.06168007574 -0.58356692552 0.80933188423 0.041445937502 -0.57861828834 
0.74535901859 0.040438193036 -0.66320766561 0.85250895619 0.075654396538 -0.51387577375 0.86756973738 0.046649517577 -0.4936145852 
0.89070703608 0.086161931194 -0.43936383864 0.90663278922 0.040181961126 -0.41114818632 0.92416983765 0.085227906869 -0.36860029873 
0.9409113286 0.03346519891 -0.33481211632 0.94788011519 0.060729464291 -0.30555675156 0.95981522482 0.026963188772 -0.27112700339 
0.96685935143 0.026545763779 -0.24823588742 0.9762177405 0.015785661455 -0.21439254236 0.97682170508 -0.026097051362 -0.20182187397 
0.9840193589 -0.0041433760058 -0.17199217199 0.9855962149 -0.062826482384 -0.1492482592 0.99113985221 -0.020157927804 -0.13002459513 
0.99214135229 -0.069689310741 -0.085114164066 0.99372015141 -0.039255477572 -0.099845042613 0.9949474125 -0.08167833178 -0.01985817479 
0.99614770072 -0.058037775963 -0.059953845945 0.99145350513 -0.10230446998 0.047288092852 0.99416267177 -0.092256157422 -0.0017831970323 
0.97535944644 -0.14538918268 0.12641660966 0.98596151102 -0.13488268911 0.071181015379 0.93724861879 -0.22771669756 0.22648220927 
0.95981307048 -0.18992084542 0.17721070387 0.89463987577 -0.29527087013 0.32571081902 0.92844634954 -0.23547205662 0.27927805018 
0.83922412323 -0.32076059285 0.42255624985 0.88793148003 -0.25950598674 0.36795530383 0.78191724479 -0.34184694967 0.5181561256 
0.82959968179 -0.28174868757 0.47046696477 0.71258501146 -0.33493302597 0.60583571903 0.73856105649 -0.29816929497 0.59390206368 
0.64301026871 -0.32565999322 0.6919459181 0.63700995391 -0.29720268935 0.70484013883 0.57089429908 -0.29167037675 0.76161386209 
0.53613959934 -0.27413045451 0.79147240088 0.48587343411 -0.25973473314 0.82960297628 0.43811507562 -0.2511590421 0.85910805652 
0.36512805446 -0.23348507639 0.89294459784 0.33411019692 -0.23248370319 0.90911838907 0.25560640274 -0.20956559634 0.94064854994 
0.23415010323 -0.21890918965 0.94431892695 0.16344119275 -0.18924951585 0.96417031405 0.14362943729 -0.20576621889 0.96547568901 
0.069278576116 -0.17278490497 0.97965685865 0.060711320395 -0.1910759838 0.97833146236 -0.027825617432 -0.16199234599 0.9833099509 
-0.015254850352 -0.17790371449 0.98268208352 -0.12249734568 -0.15707019621 0.97711567729 -0.098582189711 -0.163546112 0.98017993173 
-0.21515202465 -0.1570159081 0.9627557694 -0.20240832527 -0.1581669977 0.9654795236 -0.29000224954 -0.15660995626 0.94217788449 
-0.31531774162 -0.14744950652 0.93453813473 -0.37091215504 -0.1535526401 0.91309851005 -0.40841793809 -0.13444254314 0.90041101597 
-0.48553653697 -0.14123994143 0.85777836868 -0.51677262359 -0.11493063716 0.84439831791 -0.5987907521 -0.11105759095 0.78443995589 
-0.61893751677 -0.091440845731 0.77513646266 -0.71102059683 -0.067515539023 0.69763073236 -0.71414615828 -0.060317416753 0.69663779919 
-0.77933110159 -0.046514706595 0.61867161485 -0.77223850403 -0.047009162531 0.62969197807 -0.84164075278 -0.028118560682 0.5355896174 
-0.82759269845 -0.034128462043 0.5585583249 -0.89752791363 -0.011017788669 0.43177928497 -0.88033209939 -0.013086470979 0.46865193276 
-0.93762468468 0.0051481196367 0.34148971626 -0.92375505583 0.00091747666686 0.37837579168 -0.9639222158 0.020497049466 0.26301595861 
-0.95671851261 -0.0015995964852 0.28932276833 -0.98230387529 0.030413750759 0.1672235575 -0.97564107596 0.027529073025 0.20572168775 
-0.99469091592 0.044602780942 0.068656932469 -0.99030590554 0.061848969992 0.11697300197 -0.99550987593 0.07041330663 -0.031099014822 
-0.99516723292 0.082126384133 0.0233030758 -0.98475659985 0.10731027003 -0.11864752199 -0.9907756929 0.10340785621 -0.061784190368 
-0.96761020229 0.13661949612 -0.2046108263 -0.97926091826 0.12287668544 -0.15023812763 -0.94400348592 0.14383334958 -0.29440025073 
-0.95885904912 0.14304451839 -0.24136900845 -0.91324601047 0.14809701404 -0.37467171763 -0.91766808785 0.15676383162 -0.35279858078 
-0.87406757253 0.16077718225 -0.4538237432 -0.8673524069 0.17208612709 -0.46321887561 -0.82463550859 0.18581432073 -0.53340198151 