# vtk DataFile Version 5.1
vtk output
ASCII
DATASET POLYDATA
POINTS 1118 double
54.661914825 86.095230103 54.305728912 55.755358218 86.248846853 53.180428148 55.79849299 84.799783587 52.911798385 
54.621981626 84.616809875 53.922311132 57.077939691 86.320734148 52.375659807 57.120320033 84.872828543 52.09173025 
58.536268608 86.335190811 51.783021858 58.551512031 84.90413599 51.43598946 60.041919902 86.308565579 51.316306051 
60.067581795 84.893898357 50.947034724 61.573683758 86.335174379 50.946020105 61.615061157 84.963169507 50.586930096 
63.082378936 86.6341862 50.753029236 63.169264624 85.212212359 50.39694849 64.576195263 87.117584087 50.746900858 
64.723719026 85.555778005 50.37787641 66.106014897 87.400286324 51.002341068 66.270826185 85.817595135 50.617968388 
67.664743275 87.527567977 51.176003786 67.814487657 86.013905615 50.881975639 69.1971073 87.631211513 51.448357897 
69.322768449 86.178403492 51.227765127 70.621036208 87.806282756 52.102035872 70.709364991 86.293250809 51.89010991 
71.898606628 87.871208976 53.004312872 72.007609082 86.304298968 52.698236631 73.064837678 87.808648826 54.040879824 
73.255517805 86.26083228 53.585743409 74.018463544 87.424799794 55.236194008 74.238352835 85.968146606 54.725940791 
74.674143272 86.969511443 56.575056413 75.050498887 85.583392907 55.994835891 75.169535988 86.469163623 57.98496683 
75.614532296 85.076286768 57.38296145 75.578900568 85.91058588 59.401275382 76.17250305 84.562445553 58.802903281 
76.240557215 85.573671883 60.774350279 76.879583829 84.150175369 60.229643057 77.029953675 85.304773825 62.110591306 
77.729440589 83.905025837 61.608265952 77.882430076 84.95305218 63.389299341 78.419057551 83.651725384 63.067246367 
78.297604837 84.618199311 64.800508639 78.811158916 83.37213498 64.620030786 78.2745654 84.30025042 66.344495704 
78.623037299 83.073203982 66.168160528 77.599812919 84.248174633 67.738985403 78.001584895 82.86671481 67.642519374 
76.802418719 84.209941026 69.096277313 77.227471985 82.693799152 69.059244994 75.92321171 84.043093114 70.394227689 
76.254266179 82.492260713 70.335571838 75.018211393 83.898541938 71.676628588 75.300501875 82.322789256 71.638166388 
74.094003532 83.770594508 72.947450233 74.37286147 82.203702848 72.959904945 73.081911121 83.669135034 74.151698973 
73.309313917 82.107422302 74.173459961 71.97710083 83.584157691 75.243319523 72.12088896 82.03808079 75.25516264 
70.57979903 83.549272217 75.972599342 70.753155514 81.999443812 76.047353434 69.111404272 83.523988488 76.482250238 
69.239087249 81.959482564 76.562138554 67.551183087 83.511106746 76.708219885 67.673773503 81.912515997 76.81283633 
65.99161359 83.421341293 76.910266802 66.097433042 81.841710978 77.008587485 64.432484383 83.279632175 77.096151204 
64.526382957 81.751336625 77.179456363 62.862637799 83.155345858 77.099177796 62.944463637 81.650127114 77.139040763 
61.300282066 83.061627513 77.007510961 61.372989469 81.588357196 76.994603374 59.788986579 83.120160271 76.562451151 
59.822257344 81.589502561 76.71626477 58.330456742 83.120797205 75.983037067 58.344340504 81.565998642 76.125784787 
56.920985634 83.067605645 75.278707441 57.006003802 81.53564313 75.281248233 55.754374994 83.140974828 74.221203443 
55.797359554 81.513798941 74.195983721 54.751433117 83.203425913 73.026689966 54.662639979 81.500805241 73.013095946 
53.925291128 83.253430104 71.684860109 53.59511547 81.551132434 71.677096826 53.307532888 83.338692699 70.237896734 
52.995570599 81.77389694 70.157304721 52.652273582 83.389389288 68.806425762 52.441970409 81.898182159 68.709024812 
51.959765827 83.401914697 67.391458938 51.960295475 81.951889686 67.200420219 51.468647837 83.433383792 65.893683526 
51.409577039 82.031720215 65.726061471 51.467731679 83.701561004 64.385754195 51.304468777 82.203333124 64.178210572 
51.717617424 84.068705505 62.873537038 51.4348879 82.480506914 62.603563906 52.020717362 84.401755796 61.362667653 
51.684218808 82.793078855 61.025960377 52.160980136 84.639336871 59.810657076 52.048362662 83.108831724 59.466663338 
52.621172879 84.945256116 58.346098241 52.598152267 83.460640297 58.002253889 53.147326057 85.255601412 56.893147005 
53.161038833 83.853204805 56.552310394 53.761219838 85.606602382 55.503856559 53.814469706 84.241174238 55.183641134 
55.233894348 58.233455658 54.253322601 54.617760583 58.268982055 55.736420178 54.379443115 59.812833949 55.787370705 
54.954088287 59.766495642 54.229138084 54.210118802 58.331152103 57.269619144 54.013849205 59.862855316 57.406552088 
54.069183827 58.427405204 58.866908735 53.891997066 59.864549219 59.055153717 54.286130524 58.28429718 60.442343168 
54.032158652 59.721078248 60.700575765 54.673021542 58.039990156 61.962249636 54.413126153 59.482860381 62.299317967 
55.420904348 57.594998862 63.31247755 55.058884307 59.043696031 63.785378712 56.309269637 57.099774106 64.535048802 
56.001984443 58.572209994 65.058964859 57.384703868 56.537657589 65.5876302 56.973763766 57.970793491 66.256415051 
58.364632102 55.99993803 66.733275336 58.065535907 57.486124074 67.346258612 59.248121743 55.486853658 67.972892956 
59.172433807 57.104961188 68.411152931 60.343840074 55.276518146 69.119201695 60.298142582 56.86318238 69.479037446 
61.549993326 55.175635586 70.164277705 61.537128754 56.76227272 70.425698028 62.873097897 55.167419821 71.065559904 
62.859819184 56.774586922 71.250116781 64.403272128 55.288186849 71.539314603 64.28502885 56.886367681 71.879791656 
65.953720347 55.526820835 71.869176799 65.8094101 57.128387429 72.179892956 67.511342166 55.843327699 72.090625328 
67.353827659 57.431762197 72.293256601 69.075829102 56.1811375 72.172345764 68.91477924 57.70033628 72.295582041 
70.639738046 56.441752555 72.024734322 70.471022386 57.900118239 72.117691313 72.164551476 56.484160719 71.52441144 
72.009477345 58.031776662 71.715862514 73.741668755 56.438019526 71.222693948 73.539659666 58.077956206 71.346777707 
75.314410357 56.559146033 70.923245623 75.066489495 58.179410478 70.981121614 76.783651361 56.769122967 70.338005219 
76.436292064 58.370466611 70.300087202 78.09565253 57.100744785 69.493793251 77.615936931 58.616281336 69.352615361 
79.231925767 57.443973942 68.428696025 78.70285732 58.899210343 68.292104878 80.22730344 57.670524878 67.188702457 
79.727955885 59.138369266 67.14471589 81.254451094 57.846615922 65.966237322 80.753463106 59.354080992 66.015933545 
81.862501891 57.924240667 64.494998904 81.372713451 59.520230753 64.600303387 82.315061197 58.144193969 62.977797708 
81.823745152 59.734249122 63.122503522 82.647688218 58.454651926 61.445073291 82.199042736 59.987411117 61.622548378 
82.655502127 58.56468463 59.842483789 82.253572241 60.164318859 60.085420022 82.627520129 58.836727231 58.263516658 
82.162152387 60.360329369 58.5539371 82.541660519 59.150285324 56.699916663 81.960504399 60.547856968 57.05766978 
81.99592291 59.126001596 55.189273711 81.390076436 60.576521831 55.637312778 81.206272924 59.054367018 53.826021501 
80.612393795 60.552008943 54.31705339 80.143874613 58.929783653 52.627584946 79.565548617 60.444663287 53.232415084 
78.811297249 58.812389442 51.760655241 78.311840344 60.307646848 52.386694121 77.396314896 58.695308922 51.03550567 
76.942948436 60.193721738 51.718072832 75.812044637 58.569637873 50.801505889 75.491350209 60.115078769 51.238267231 
74.237703741 58.485863988 50.508678219 73.975323199 60.036335712 50.866434391 72.680450209 58.474190603 50.114614098 
72.470716441 59.99724668 50.414074652 71.160869952 58.397113458 49.603078927 70.952931194 59.947780657 49.926078437 
69.617174515 58.317925435 49.205944641 69.444487929 59.928557554 49.464405415 68.020577465 58.256296824 49.039989415 
67.880323522 59.919169692 49.18544161 66.415369737 58.228730865 49.061217246 66.279907725 59.900334388 49.15205942 
64.81171554 58.202259143 49.139722283 64.67588595 59.864801094 49.245236766 63.216256939 58.173420778 49.289789246 
63.081584637 59.817562513 49.42580705 61.702471027 58.129897001 49.825531029 61.509426427 59.758373767 49.805353959 
60.202594007 58.139366541 50.398537043 59.978272699 59.710609026 50.328139029 58.730636393 58.167150147 51.03123173 
58.453428078 59.676672813 50.89846165 57.38352426 58.12905969 51.905473906 57.101009081 59.682448801 51.789050879 
56.238444729 58.15795931 53.002067153 55.919282665 59.734793858 52.913915062 56.966600699 83.55796987 51.507627598 
55.647019947 83.455749778 52.400079364 58.400271639 83.595113601 50.740367308 59.952868864 83.542180509 50.204504512 
61.576874268 83.59631552 49.884744063 63.234830779 83.774848108 49.76363238 64.861491452 84.068273508 49.853720862 
66.447329593 84.305763832 50.180655764 68.017197883 84.544093163 50.46861108 69.546600723 84.771332593 50.766230596 
70.976682588 84.883974215 51.375854674 72.357755035 84.940707069 52.066867257 73.65471969 84.926056134 52.890761716 
74.679347744 84.642587002 54.039741613 75.543418578 84.261758571 55.315202697 76.132881226 83.731824601 56.71251575 
76.826904938 83.240631549 58.133614401 77.639930804 82.830143532 59.574464686 78.628229292 82.632279824 61.038635104 
79.155716352 82.390245202 62.706202036 79.326331406 82.065163038 64.394501705 79.086178072 81.754526755 66.014994247 
78.466053637 81.458483553 67.558854411 77.674770417 81.208363212 69.025705443 76.589971886 80.924326118 70.27058508 
75.540190161 80.711433193 71.574684387 74.601387221 80.601121367 72.955529675 73.535125081 80.528424457 74.233801122 
72.322350042 80.483232835 75.35489326 70.922176537 80.438288746 76.134773649 69.370053339 80.387696284 76.593779261 
67.779637938 80.338119408 76.810069537 66.190692518 80.279672957 76.992718044 64.609531017 80.2020219 77.159053626 
63.021266872 80.119885537 77.193484688 61.425876255 80.065894922 77.12919449 59.84268705 80.048044751 76.952245836 
58.30684494 80.028765473 76.397279458 56.823084715 80.01083644 75.68751722 55.452744506 79.947945446 74.68024741 
[...]
POINT_DATA 1118
FIELD FieldData 21
Circ_Strain_Pt 1 1118 double
0.99314719589 0.99126632335 0.99606598504 0.9946406484 0.99503159147 0.99802100373 0.99987058504 0.99909224285 0.99977601951 
0.99905368663 0.99878083677 0.99839015767 0.99766625907 0.99756096494 0.99635328685 0.99724469475 0.99406141889 0.99816614768 
0.99247427011 0.99758109253 0.99236982424 0.99712558084 0.99619622454 0.99707109685 0.99748690464 0.99511260436 0.99744831873 
0.99231957398 0.99593998616 0.99205726963 0.99402230271 0.99306228487 0.99200248296 0.99539892508 0.99053449066 0.99275567227 
0.99351478421 0.98711041694 0.99383352092 0.9800019219 0.97990105784 0.97776652139 0.97971106216 0.98073515276 0.99329221156 
0.99090269127 0.99742211005 0.99606369301 0.99959751372 0.99727794665 0.99979901403 0.9981802046 0.9982249517 0.9984025567 
0.99532867839 0.99790447627 0.99328816101 0.99487851106 0.99216697812 0.99199878407 0.99394870662 0.99098074722 0.99598164063 
0.9922945838 0.99833904142 0.99795627165 0.99875114576 0.99935770838 0.99784898178 0.99933410299 0.99724510782 0.99708875285 
0.99674516645 0.99490590978 0.9965435602 0.99488791449 0.99584813466 0.99553676569 0.99469358189 0.99709740549 0.99718231157 
0.99601734041 0.99855769981 0.99528111687 0.9987062083 0.99567165798 0.99815305664 0.99761887048 0.99596803229 0.99713464345 
0.99196707083 0.9911559128 0.98691977051 0.98732969939 0.99159043362 0.99331415581 0.99749835205 0.99925932111 0.99437518052 
0.99851825786 0.99272832316 0.99764534798 0.99429819857 0.99746571613 0.99542203829 0.99631823951 0.99485424765 0.99481564439 
0.99619547454 0.996004064 0.99568750308 0.99555581229 0.99608586519 0.995924155 0.99651716387 0.99657639195 0.99576317289 
0.99638361113 0.99432734759 0.9955904304 0.99130686579 0.99430089517 0.98860563196 0.99297755701 0.98632952679 0.99348403927 
0.98806479624 0.99666227524 0.99385061043 0.99838056561 0.99646216037 0.99868268828 0.99645897232 0.9980435254 0.99387499423 
0.99697476398 0.99392383928 0.99606501119 0.99726021609 0.9979387997 0.99919988332 0.99837172941 0.99635205945 0.99723372028 
0.99073122907 0.99539047259 0.99205225417 0.9958573104 0.99801797665 0.99610110117 0.99738997251 0.99589040843 0.99802081241 
0.99674581774 0.9976046526 0.99778745785 0.99663676969 0.99848496671 0.99596128136 0.99441640119 0.99013359911 0.98928258945 
0.99293109764 0.99295399621 0.99494174541 0.99619181292 0.99529697206 0.99696321467 0.99590450573 0.99801230834 0.99458822181 
0.99606856354 0.99259610581 0.99419831726 0.99260903912 0.993529038 0.99293603784 0.99403470884 0.99361423159 0.99273459003 
0.99271530842 0.99260241141 0.99168349241 0.99373898949 0.99208965693 0.99496191836 0.99389792906 0.99656476882 0.99811907712 
0.99739919519 0.9969071044 0.99746611193 0.996155705 0.99788923826 0.99793712738 0.99834258759 0.99899170644 0.99868881586 
0.99788411442 0.99857193995 0.99504065133 0.99744809527 0.99637977083 0.99769866422 0.99743160994 0.99802899395 0.99790849866 
0.99650560665 0.99581728573 0.99369299072 0.99541796116 0.99369179272 0.99792405323 0.99629533814 0.99885062641 0.99882736441 
0.998844234 0.99825836419 0.99700319108 0.99765140162 0.99782343039 0.99737559615 0.99815493603 0.99691412625 0.99347306634 
0.99158551674 0.99279026028 0.99549725034 0.99431962192 0.99241139682 0.97819427011 0.97364642237 0.98525943865 0.99313512172 
0.99452581915 0.99375105604 0.99357181517 0.99544637657 0.99809981615 0.99509646005 0.99234330389 0.99135246041 0.99239589767 
0.99488612142 0.99749847503 0.99963546206 0.99962074748 0.99730104735 0.99275422483 0.99036005081 0.98835348562 0.99511874915 
0.99770571979 0.99726480296 0.99681915932 0.99638064468 0.99435733341 0.98981097311 0.99498330949 0.99815541564 0.99867284915 
0.99777399267 0.99790581942 0.99767875607 0.99625191334 0.99460493896 0.99795951316 0.99792268791 0.99627279286 0.99591753788 
0.99679217989 0.99761508018 0.99792106846 0.9970901897 0.99655835381 0.99850386314 0.99864197754 0.99732297649 0.99582934564 
0.99596196019 0.99773215578 0.99877204568 0.99839876149 0.99702271471 0.99722554926 0.99882996212 0.99691118953 0.99647254907 
0.99678276898 0.99793259313 0.99735101869 0.99307738367 0.99468330635 0.99670358079 0.99698935002 0.99589692942 0.99305034937 
0.99024693559 0.99211648263 0.9953555635 0.99695264792 0.99735327879 0.99675848691 0.996692321 0.99718191141 0.99783094605 
0.99779364389 0.99713042381 0.99637079143 0.99691707642 0.99889674831 0.99852135151 0.99806933981 0.99705931507 0.99379001918 
0.99020698269 0.98928938775 0.99642577894 0.99861839913 0.99847810939 0.99901448483 0.99872581894 0.99867615999 0.99836687225 
0.99740448465 0.99645112135 0.99605289113 0.9955718704 0.99369715166 0.98915928403 0.9893909797 0.99461794487 0.9981175077 
0.99856230192 0.99856880525 0.96217096265 0.93361815099 0.97553156051 0.99586280164 0.99573958002 0.99354285802 0.99400967252 
0.99658772785 0.992253674 0.98878626086 0.98867231332 0.99191610409 0.99554358422 0.99819526092 0.99951782184 0.99943286645 
0.99809495417 0.99405835421 0.98609909527 0.9852164348 0.98700723969 0.99073697123 0.99520396426 0.99631665601 0.99433070905 
0.99630892489 0.99313033321 0.99421725722 0.99363512457 0.99624215706 0.99753929772 0.99788263913 0.99733536964 0.99618839046 
0.99533382973 0.99501336456 0.99702221609 0.99671950959 0.99666651488 0.99631017403 0.99865416254 0.99789004085 0.99868955874 
0.99910157302 0.99837704197 0.9974351034 0.99702787848 0.9977832814 0.99847084242 0.99783860866 0.99539494428 0.99460180964 
0.99669418504 0.99762684777 0.99826872171 0.99751068698 0.99867952351 0.99895656606 0.9988128988 0.99604585397 0.99549757812 
0.99802281468 0.99708223113 0.98945101433 0.99061154124 0.9987853011 0.99588524171 0.99405096718 0.99208860452 0.99330298909 
0.99504940806 0.99632740541 0.9965323771 0.9953712737 0.9967944579 0.99771684987 0.99703861121 0.99556876909 0.99557339811 
0.99768558911 0.9981506525 0.99765132316 0.99598881659 0.99672156347 0.99661016234 0.99575640142 0.99313497417 0.98705763226 
0.98976472579 0.9941766797 0.99802141155 0.99548088627 0.99589195542 0.99446199486 0.99249461712 0.99052661338 0.99427899205 
0.99716182612 0.99690334983 0.99495773523 0.99463487713 0.99439357316 0.99379445266 0.99536265807 0.99737904865 0.99866520745 
0.9989567897 0.99906458818 0.99847891864 0.99764102091 0.9975644344 0.99725506353 0.99685061304 0.99725120213 0.99445570569 
0.9889851464 0.98872617034 0.99413078673 0.99863425037 0.99922117571 0.99697431225 0.99436364222 0.96133742169 0.93351101556 
0.99339214773 0.99673744992 0.99383262918 0.9937045516 0.99748171914 0.99657914059 0.99088461266 0.98773410809 0.98634587027 
0.98902364105 0.99333973186 0.99700495952 0.99981382084 0.99966778174 0.99895339641 0.99745542403 0.9896375628 0.98817424103 
0.99300131725 0.99622531947 0.99606206383 0.99508767876 0.99633393511 0.99433877098 0.99540292449 0.94877212334 0.98291484919 
0.99675557471 0.99306602267 0.99898362698 0.9983496333 0.99870330575 0.99923251738 0.99824028061 0.99801824789 0.99828101606 
0.99685897006 0.99440475616 0.99482348161 0.9970374588 0.99909346542 0.99904220117 0.99920146776 0.99938523572 0.99939351598 
0.99597281558 0.9930970403 0.98997684722 0.99409688073 0.99799262968 0.9960518285 0.99390500682 0.99458216143 0.99707238204 
0.99652226724 0.99611313883 0.99567983872 0.99625759075 0.9974158956 0.99649957413 0.99482950364 0.99518673286 0.9970667182 
0.99633029881 0.99496212396 0.99552700222 0.99737635141 0.99814423138 0.99809706209 0.99868948974 0.99453458285 0.9943625611 
0.99184916042 0.98806925593 0.98630461691 0.98760019137 0.99781263366 0.99492839943 0.99713240311 0.99902862616 0.99843574035 
0.99254488399 0.99052521727 0.98876682421 0.9976236879 0.99445518294 0.99368552009 0.99536245926 0.99542949965 0.99460265903 
0.99498707761 0.9933592789 0.99142529334 0.99192802557 0.99310659749 0.99479911997 0.99620931251 0.99742070552 0.9978227056 
0.99756389679 0.99842677148 0.99634282695 0.99794605381 0.99500114882 0.99537707367 0.99597881619 0.99653379449 0.99667141091 
0.99502904857 0.99436639721 0.99533774479 0.99596207169 0.99645466259 0.99429248017 0.9929896556 0.99288514721 0.98831727453 
0.99519617113 0.96222436037 0.94026922503 0.94304127015 0.99585661214 0.99644889727 0.99359347666 0.99345404116 0.99597972341 
0.99611923707 0.99185679835 0.98915474825 0.98994577155 0.99400218347 0.99855841762 0.999777995 0.99926041384 0.9977822648 
0.99614152515 0.99380993672 0.99385790119 0.99439321693 0.99556185834 0.99521776806 0.99390701485 0.99437551818 0.99581137314 
0.99508612423 0.99423807936 0.99519991978 0.99362335016 0.9909580577 0.99186659846 0.99893514838 0.99825732611 0.99945156803 
0.99922664468 0.99962369657 0.99940006853 0.99835793203 0.99816773489 0.99798381888 0.99651756925 0.99518540494 0.99654191974 
0.99845015445 0.99687417468 0.99801517658 0.99868062188 0.99903637112 0.99945507372 0.99889148035 0.99665388574 0.9956717702 
0.99420423388 0.99641848179 0.99730730138 0.99431660982 0.98824994006 0.99004941632 0.9911906304 0.99228949077 0.99541284664 
0.99611630196 0.99682311861 0.99667277961 0.99588777517 0.99692141601 0.99786714377 0.998282989 0.9978023744 0.99681501769 
0.99754262576 0.99793569754 0.99809161687 0.99545448483 0.99527159444 0.99584351336 0.99388657793 0.98963469933 0.98681615408 
0.98659934819 0.98816135751 0.99131539072 0.98952292171 0.99294347782 0.99765710782 0.99766626787 0.99641881566 0.99278072892 
0.99785382913 0.99504362275 0.99806931797 0.99700028219 0.99706972262 0.99875576187 0.9989374792 0.99977246472 0.99556773457 
0.99499906769 0.99429606344 0.99774893785 0.992234934 0.99709890391 0.98792586853 0.98093898068 0.96787527526 0.9866956159 
0.99542722582 0.99770840394 0.99484837989 0.99561166 0.9985644147 0.99285818077 0.99448130414 0.98971935753 0.9893616903 
0.99243905544 0.99682654589 0.99962298238 0.99970884229 0.99935235512 0.99773158938 0.99659102048 0.99563083944 0.99618569288 
0.99603486082 0.99587475231 0.99512877247 0.99465644025 0.9941082954 0.99606289114 0.99825122358 0.99511225212 0.99672153474 
0.99730930186 0.9962471335 0.99749338831 0.99351619421 0.99678346466 0.99670178391 0.99976310214 0.9997240375 0.99918481504 
0.99803921131 0.99551863301 0.9951536707 0.99672335958 0.9953564421 0.99875105182 0.99716206654 0.99908295154 0.99880426419 
0.99828758393 0.99822769096 0.99710518522 0.99510710975 0.99682151842 0.99586014836 0.99370813632 0.98858100741 0.97029168654 
0.98342555542 0.9956721555 0.99798451044 0.99779875263 0.99774969147 0.99719995042 0.99661774846 0.99668781848 0.99710277188 
0.99783478932 0.99809530839 0.99727744766 0.99635095231 0.99937467217 0.99938508242 0.99587176709 0.995918556 0.99682422391 
0.99848763033 0.99515615046 0.98970468269 0.99526895538 0.99406267103 0.99495239716 0.99196809184 0.99377352256 0.99292109833 
0.99211554053 0.99097230876 0.99095263339 0.99146046939 0.99273456282 0.99613016574 0.99783832094 0.99798542073 0.99749165899 
0.99647502489 0.99830885752 0.99788813888 0.99884592643 0.99746155491 0.99516822998 0.99362498421 0.99299553452 0.99454886518 
0.99536152342 0.99475830296 0.99549199454 0.99669909612 0.99745585128 0.99675422337 0.99646475271 0.98690064338 0.98790574476 
0.98426931051 0.99252393075 0.99624380678 0.9970934934 0.99720657336 0.9954870041 0.99381445725 0.99346538256 0.9969707962 
0.99779705721 0.99700902774 0.9983849184 0.99762079286 0.99664103142 0.99653452753 0.99734214008 0.99640803755 0.99916755281 
0.99605730068 0.99934400985 0.9995017687 0.99720476459 0.99532157783 0.99465846688 0.995835717 0.99841745245 0.99358189299 
0.9923036422 0.99250576794 0.99380451756 0.99715224218 0.99804959819 0.99781459238 0.99780762139 0.99652070301 0.99331939576 
0.99188850238 0.9951346662 0.99273978572 0.98818213012 0.9541187577 0.94134044464 0.96058098198 0.98867542519 0.99826754272 
0.99811708013 0.99798994734 0.99803916227 0.99835567329 0.9982883315 0.99764860169 0.99646285371 0.99494059668 0.99403405712 
0.99402606527 0.99431096211 0.99886316466 0.99441059243 0.99503280666 0.99673596936 0.99535127659 0.98942820263 0.9987734954 
0.99728741668 0.99019495413 0.98829347801 0.98727257763 0.98805483716 0.99248179434 0.99709856682 0.99844361271 0.99669747788 
0.99739458738 0.99589619352 0.99608146295 0.99726099766 0.99626014031 0.99823705191 0.998305416 0.99836975335 0.99727925819 
0.99496491902 0.99350886467 0.99333208991 0.99315455328 0.9926750076 0.99423888024 0.99590387168 0.99721861067 0.99766650843 
0.99792093461 0.99587949634 0.99124170317 0.98843604799 0.98587298713 0.98591184519 0.98922668065 0.99232923586 0.99786783762 
0.99552259667 0.99425006264 0.99563696907 0.99674033484 0.9950530047 0.99823853148 0.99850836531 0.99751581722 0.99644313052 
0.99509771076 0.99408886967 0.99329857811 0.99377825533 0.99425553565 0.9957185965 0.99687996787 0.9981168248 0.99885112742 
0.99866298391 0.9985872369 0.99894667721 0.9989938043 0.99658439399 0.99622194562 0.99527142035 0.99394418475 0.99404525838 
0.99451831714 0.99586830901 0.99793765837 0.9989187484 0.9990906574 0.99887369199 0.99890284094 0.99914424712 0.99321025001 
0.99890765326 0.98873608809 0.9861077409 0.98051025149 0.985550447 0.99699033471 0.9977228696 0.99710850206 0.99456938324 
0.99530866316 0.99662737497 0.99748525614 0.99431204216 0.9911024355 0.98894513171 0.98781310125 0.99572084613 0.99927900405 
0.99932280412 0.99864677914 0.99787525792 0.99664546518 0.99573003227 0.99521803535 0.99650702388 0.99746931664 0.99624257617 
0.99452880462 0.99374914395 0.9944079361 0.99458682634 0.99898267742 0.99827252218 0.99864931928 0.99600996992 0.99570244101 
0.9925683788 0.99245905837 0.98177957504 0.99492607382 0.9955117566 0.99507904593 0.99308461075 0.9929240052 0.99234928962 
0.99573112527 0.99222616483 0.9983859301 0.99773703378 0.99762129705 0.99696595038 0.99725275841 0.99863681185 0.99549746188 
0.99110745733 0.98952740095 0.99098058528 0.98628471431 0.97628964386 0.97998236969 0.99657199811 0.99827324981 0.99900568922 
0.99919267873 0.99930237557 0.99824087555 0.99684121153 0.99731784931 0.99605710766 0.99834659651 0.99114352523 0.99297474568 
0.99321418346 0.98822511795 0.99646121329 0.99847411453 0.99824946305 0.99629170657 0.99192782192 0.98926647065 0.99221811359 
0.99103794348 0.98632867103 0.97824637427 0.9605498516 0.95140988292 0.98644244655 0.99931664295 0.99860642286 0.99877699636 
0.99891339589 0.99869527128 0.99752806148 0.99608360532 0.99343408191 0.99302760147 0.99611208029 0.99724623748 0.99708146165 
0.99696791537 0.996469433 0.99554035778 0.99485705527 0.99517270505 0.99628449522 0.99757895372 0.99862526547 0.99909836692 
0.99909104493 0.99889863743 0.98486733354 0.99424353705 0.98690161356 0.99030686924 0.99512390858 0.99885184309 0.99905121792 
0.9987444923 0.99846563118 0.99676042696 0.99611639899 0.9959661416 0.99667982282 0.99731499748 0.99660992845 0.99612151962 
0.99562784958 0.99388363855 0.99053259803 0.9663610372 0.98069848188 0.99106589733 0.97715913709 0.99504609933 0.9935823749 
0.97667053753 0.97670927474 0.99319396174 0.99456774686 0.99384727626 0.99192678307 0.98979812931 0.99836892042 0.99911838651 
0.98936486358 0.9938828606 0.97663845048 0.98068028083 0.99156789722 0.99327334976 0.99867472717 0.98958768332 0.98847457134 
0.98960691108 0.99840205164 0.99804985783 0.99640541345 0.99610058585 0.99679290951 0.99755181516 0.99760839762 0.99818446081 
0.99905474606 0.9985808865 0.99744359851 0.99705338968 0.99659518607 0.9969019542 0.99756362742 0.99872766383 0.99906189011 
0.99861916644 0.99758164675 0.99503437694 0.99493422725 0.99549390112 0.99604699708 0.96429988624 0.99729266421 0.99690232167 
0.9960562149 0.99638423832 0.98815928879 0.98999877986 0.9953312162 0.9987072559 0.99864110622 0.98832504697 0.9662694025 
0.98105490851 0.99700086416 
Circumferential 3 1118 double
0.66304068661 0.20352941918 -0.72038380286 0.7982683206 0.19703901175 -0.55538025424 0.80657759425 0.19624006674 -0.54169723354 
0.6700942687 0.1948916358 -0.71427968672 0.88610161598 0.19120899942 -0.40906410299 0.89652609636 0.18574583853 -0.38964367794 
0.93721633989 0.18790497719 -0.29135895319 0.94739200425 0.16893893323 -0.26956143656 0.95533663105 0.19047052567 -0.22461957746 
0.96438272858 0.17236974304 -0.19625175758 0.96723132877 0.20341271986 -0.14141555991 0.97457344609 0.18326392725 -0.11661899917 
0.97604739533 0.19530641759 -0.031607758144 0.979947597 0.18536666891 -0.019068930041 0.98036143563 0.17525693419 0.086913270749 
0.9787186466 0.1767555954 0.10322666487 0.97109502151 0.19029727779 0.14104927041 0.97104031884 0.17541365264 0.158504926 
0.95558140736 0.15387086419 0.23452896195 0.95592059253 0.15743464866 0.23538064942 0.92235258341 0.11273078113 0.35476768192 
0.92248388423 0.14188759757 0.35309869591 0.84013766011 0.10487567941 0.52118612875 0.8562603854 0.10596612304 0.49604027069 
0.73332175777 0.072002334831 0.66208504204 0.76072351641 0.071420749675 0.63114343754 0.60279146212 0.026010375434 0.78864426435 
0.65005776225 0.045508550873 0.75756160175 0.41807027049 -0.034496030254 0.89686125941 0.47822210088 -0.0059274225136 0.8644087722 
0.28652465612 -0.087890329685 0.94973112735 0.34092218782 -0.042422886194 0.93686951331 0.20654234975 -0.11672272605 0.97017979283 
0.25396409196 -0.06009589154 0.96474286332 0.27217097817 -0.025843834605 0.9596342666 0.30993910359 -0.020164747641 0.94846463951 
0.3202354488 0.052258989772 0.94385769662 0.34535012689 0.027163937249 0.93747704956 0.35506059212 0.11377626448 0.92767711563 
0.32671125752 0.073660847323 0.94195519651 0.37190518149 0.14046815886 0.91720641671 0.14662621875 0.011999835806 0.97616395207 
0.16071512337 0.076580568819 0.91907454293 -0.064179871512 -0.04097032239 0.98329959263 -0.27898544358 -0.078075526385 0.93330724284 
-0.29517495297 -0.079383110989 0.94115790388 -0.43672371157 -0.11035250543 0.8864481645 -0.45422821007 -0.10162027179 0.8785912156 
-0.53480554776 -0.11402292301 0.83681434566 -0.56173345482 -0.11082331527 0.81979068145 -0.56796854913 -0.077368531777 0.81855001803 
-0.57525006578 -0.092011550488 0.81257574307 -0.59730712138 -0.063522982627 0.79906854004 -0.59514211549 -0.081099276353 0.7990913969 
-0.6237977501 -0.066662529062 0.77868068482 -0.6234259094 -0.077059408191 0.77787296937 -0.72236351688 -0.10378824251 0.67033014312 
-0.71253804914 -0.09877423067 0.68467556112 -0.8190641899 -0.14154573035 0.54402848047 -0.8143503219 -0.12380777842 0.55879023852 
-0.89694547508 -0.17544750512 0.37352593112 -0.89738526651 -0.15132323942 0.38925421996 -0.9482112682 -0.1940519997 0.24376129316 
-0.95564062404 -0.16726785349 0.23405323423 -0.96509945793 -0.19289793297 0.16661532399 -0.97054279421 -0.18187315961 0.1482768585 
-0.97571673516 -0.1884375223 0.09992266985 -0.97713389217 -0.18858632404 0.085979265544 -0.98209729995 -0.18174330139 0.040292415305 
-0.98095190252 -0.1905430696 0.034358236267 -0.97685948363 -0.16994617271 -0.074527159727 -0.97996361505 -0.17824347415 -0.05222791344 
-0.96500437312 -0.15736313155 -0.19947874076 -0.97223828871 -0.16484934419 -0.14860856793 -0.92738948815 -0.14513651601 -0.32955831517 
-0.93927220477 -0.14688421954 -0.2921051515 -0.86698147629 -0.1173430947 -0.46802438443 -0.88010327 -0.11745432889 -0.44486285704 
-0.78538161327 -0.075076475723 -0.61428777572 -0.80266243031 -0.080643174327 -0.5898563058 -0.67243343044 -0.043790334586 -0.72933400418 
-0.71782666916 -0.053942989908 -0.68914490873 -0.56098605066 -0.027903382162 -0.82223619124 -0.61928706424 -0.041908727329 -0.77705747313 
-0.45131342041 -0.028705372542 -0.89121021737 -0.49678511261 -0.047650892224 -0.86588911334 -0.42482828814 -0.02039318888 -0.90485755983 
-0.39763527606 -0.014921172823 -0.91431543095 -0.39614632093 0.00086052489166 -0.91752963013 -0.35008032043 0.016853895059 -0.93642286819 
-0.34485437677 0.033461906153 -0.93472241132 -0.32807687528 0.034869553239 -0.94241679323 -0.091751917058 0.037179705611 -0.983559705 
-0.15226013722 0.04350630013 -0.98301802046 0.076044665311 0.043920715869 -0.99203183847 -0.021821866934 0.046799796368 -0.99521711263 