# vtk DataFile Version 5.1
vtk output
ASCII
DATASET POLYDATA
POINTS 1101 double
56.301254272 51.808418274 15.197651863 56.377996043 50.597975709 14.29988821 54.944069702 50.609175953 14.153544244 
54.845838667 51.879377885 15.040270844 56.466803252 49.347040146 13.46701315 55.054951448 49.299385672 13.370587698 
56.57700687 48.024295779 12.749209152 55.176159727 47.922466937 12.723690795 56.726889549 46.592695855 12.327220354 
55.316063755 46.476558588 12.282381109 56.902499691 45.126539462 12.031206447 55.481115243 45.001460051 11.939528066 
57.133466445 43.640546858 11.906625473 55.661087799 43.49237397 11.777000741 57.365615556 42.152581243 11.815576081 
55.853995634 41.976571009 11.666252625 57.598617901 40.663191826 11.748724377 56.055769467 40.456452065 11.585334273 
57.812399141 39.171997385 11.829147769 56.250151072 38.933376931 11.5659134 58.008888055 37.682246397 11.954839693 
56.44053493 37.404585644 11.640694851 58.17313467 36.195557702 12.154388818 56.633161099 35.879492755 11.80870764 
58.321292256 34.767579519 12.587557764 56.788533006 34.401957968 12.231474861 58.461628821 33.368141049 13.134291425 
57.020732077 32.989890819 12.830553109 58.665378693 32.19460477 14.049751069 57.189817495 31.793438038 13.79325892 
58.875858691 31.045043747 15.004344021 57.448758316 30.653748311 14.788712183 59.018983309 30.099387362 16.168160821 
57.565530582 29.790302688 16.029960785 59.156248322 29.171469735 17.350179126 57.70234762 28.939526397 17.258472982 
59.206279582 28.434487503 18.662167232 57.744612335 28.353312913 18.609895018 59.241884007 27.729082422 19.995649919 
57.760708285 27.759996987 19.946562456 59.220457751 27.395591113 21.465695936 57.707484425 27.610486677 21.38721869 
59.180801053 27.137115009 22.941783206 57.597489253 27.457943165 22.830512218 59.030648465 27.308759197 24.433437506 
57.463557437 27.661668132 24.279024163 58.877011668 27.500409461 25.920685648 57.294352268 27.849940609 25.740381606 
58.684651667 27.914405506 27.358964127 57.130732021 28.23599809 27.172752447 58.492291666 28.328401551 28.797242606 
56.9514609 28.624153197 28.609166891 58.249813781 28.844163997 30.193568213 56.775967841 29.100679064 30.021702735 
57.998741681 29.377377343 31.582699743 56.637374194 29.593131204 31.429217546 58.02074924 29.98628778 32.941086421 
56.631306726 30.194492175 32.800636207 58.246335089 30.651629679 34.276553104 56.731218773 30.876575545 34.12963614 
58.453280495 31.40949943 35.553355285 56.852368634 31.667206863 35.402767313 58.615515458 32.389303901 36.689446431 
56.97412868 32.646787836 36.521704083 58.741325597 33.443862805 37.7441039 57.048749938 33.690770689 37.579104172 
58.768144316 34.701581156 38.577449798 57.077769332 34.893391818 38.451922033 58.755258724 36.02508713 39.28906949 
57.062845036 36.151720491 39.233443216 58.706344464 37.40829041 39.89023183 57.03020766 37.483046561 39.863705947 
58.63029797 38.887983564 40.145783486 56.968424906 38.893368941 40.279487376 58.540391661 40.383189551 40.311232225 
56.896629214 40.345517564 40.552380315 58.423001228 41.886972375 40.354784289 56.791203131 41.832185107 40.66084307 
58.271871208 43.36295327 40.138493748 56.668012662 43.327319438 40.599615695 58.10784795 44.826978776 39.811788666 
56.530185142 44.837342962 40.378933606 57.948991452 46.289281952 39.474929476 56.386897839 46.332889745 39.990070882 
57.779174814 47.69225094 38.956852172 56.281786882 47.751810154 39.387521004 57.62134423 49.035281436 38.299478065 
56.191529414 49.101950818 38.660114615 57.492312595 50.301299128 37.48855876 56.094314356 50.39659095 37.840121786 
57.354698622 51.496382684 36.578437059 55.987870068 51.615347711 36.932273191 57.233650027 52.616581958 35.582635601 
55.877112913 52.779849805 35.958228676 57.138976305 53.634812945 34.473003851 55.732490312 53.858751713 34.869118781 
57.074319146 54.626300397 33.337477024 55.555339034 54.858852195 33.700965959 57.006972244 55.556669877 32.156666923 
55.385849894 55.839832898 32.414274497 56.919617675 56.342403031 30.871352693 55.396065641 56.622417445 31.00290852 
56.844167592 56.94474425 29.497460988 55.398984745 57.209216366 29.590892042 56.772942236 57.446568989 28.076866487 
55.346674809 57.712543166 28.142521028 56.6531039 57.723378436 26.598334992 55.25588454 58.016056131 26.661766486 
56.565243238 57.893803544 25.107600806 55.187511151 58.209793304 25.159770296 56.523438473 57.911008444 23.599291676 
55.147809003 58.201297348 23.652476983 56.466671662 57.408437871 22.205528305 55.08346026 57.779368624 22.186756201 
56.403421988 56.737377971 20.857117099 55.029443514 57.199898779 20.755368382 56.326681912 55.925882084 19.587225188 
54.901294337 56.321026532 19.478319269 56.276978908 54.99952809 18.407588524 54.778082792 55.351945987 18.251082275 
56.257774979 53.943608804 17.329763979 54.707460652 54.25876931 17.102937486 56.272541769 52.878002006 16.2617037 
54.750126496 53.071497885 16.052219697 31.098737717 51.132358551 21.928918839 31.026108187 52.261682397 22.957989139 
32.312634637 52.738669477 22.592498529 32.374663719 51.652656138 21.497867792 30.977101797 53.244040136 24.126505515 
32.319531628 53.63881596 23.84636738 31.049120237 53.751889473 25.533797961 32.427083945 54.244671736 25.263796741 
31.181376574 54.149239368 27.0043541 32.627097267 54.547250134 26.776634474 31.324642195 54.326069584 28.496341128 
32.854537844 54.550966976 28.310267875 31.496921267 54.097184077 29.973510579 33.045030341 54.282359687 29.827542035 
31.741331817 53.438838886 31.332362364 33.24906513 53.71063388 31.271706127 32.00277129 52.787968345 32.691642215 
33.450070892 52.991150178 32.653821299 32.211882314 51.88261099 33.880825402 33.625924776 52.070867215 33.904742701 
32.374892922 50.750217427 34.881649659 33.772500323 50.948786899 34.980692405 32.503781044 49.44068699 35.661490008 
33.914931947 49.627838313 35.783202209 32.617489214 48.002517774 36.165188719 34.048599926 48.160256568 36.30703756 
32.722579478 46.50288863 36.372950136 34.186449815 46.629728496 36.616917502 32.825460412 44.978897646 36.453522784 
34.327941301 45.07026362 36.758897914 32.919771947 43.462061551 36.406213724 34.465238423 43.504010953 36.775341267 
32.995319277 41.968814623 36.093757143 34.557551151 41.954201676 36.559011711 33.069904075 40.526140427 35.602506041 
34.597176038 40.456749705 36.119696281 33.159738881 39.17804611 34.886843133 34.634765259 39.065634923 35.436287675 
33.234964108 37.919527327 34.02075727 34.695785037 37.804512727 34.538643406 33.297290589 36.804744313 32.977126775 
34.775206425 36.648809894 33.518472087 33.401980048 35.693746797 31.93132198 34.904535092 35.568627911 32.420796348 
33.524393706 34.621746278 30.848689094 35.082848902 34.523190172 31.280519698 33.651145348 33.597135519 29.720309439 
35.291442442 33.486743388 30.101453607 33.781087741 32.621691808 28.549302341 35.484371251 32.481078672 28.847843334 
33.908423888 31.751065114 27.303698379 35.508141237 31.599941991 27.500206023 34.033572405 30.968419652 25.995479357 
35.527275311 30.818651954 26.142004435 34.109767369 30.321668897 24.612480368 35.585148816 30.292554003 24.693475477 
34.176096769 29.773665732 23.204384601 35.64354696 29.906017839 23.22489979 34.210017066 29.820228452 21.675883894 
35.714347638 29.938879863 21.710369969 34.233605129 30.099928263 20.191344002 35.772884831 30.187004414 20.196159035 
34.246752161 30.615220047 18.751227821 35.743806121 30.741406318 18.78558348 34.081205741 31.530519386 17.545008992 
35.612801752 31.789398134 17.63868826 33.87188972 32.70930489 16.693051981 35.386094173 33.032659281 16.798987813 
33.638473126 34.149785904 16.25999854 35.117299714 34.433569259 16.296257935 33.456773076 35.667411619 16.201429253 
34.894147765 35.922359405 16.243268718 33.247013055 37.167387453 16.393670361 34.693688597 37.409470438 16.393686707 
33.051910676 38.645464766 16.726951442 34.514549506 38.885213325 16.691811889 32.865251482 40.063773694 17.247791158 
34.33694211 40.345711977 17.103816914 32.664203443 41.44811387 17.858811568 34.137595895 41.818659203 17.529019117 
32.420620494 42.883182375 18.327291549 33.906276296 43.295806286 17.96333964 32.176358907 44.280602464 18.899293695 
33.626513205 44.765627997 18.402366125 31.91420667 45.727316338 19.3180827 33.331751433 46.231358309 18.830495958 
31.651413831 47.176121216 19.732194077 33.04577582 47.675609513 19.305771011 31.419048796 48.559912953 20.305420531 
32.766574782 49.074125169 19.879251904 31.239469044 49.849123653 21.108470197 32.532437541 50.406698967 20.614219803 
53.662700282 49.353840839 13.025907236 53.549858912 50.762190013 13.747079578 53.782193924 47.914964329 12.427203884 
53.90727056 46.418846811 12.015085263 54.049036781 44.902687761 11.695836966 54.203462722 43.367572068 11.467964376 
54.372849878 41.821713279 11.299720094 54.555300989 40.269040884 11.151481787 54.754891086 38.701967462 11.038029899 
54.97611709 37.11538797 11.00177507 55.209899342 35.517269956 11.098697463 55.428707842 33.938378714 11.483045055 
55.675484589 32.371615936 12.093925714 55.925714325 31.074476922 13.21935973 56.195399747 29.945976238 14.383492912 
56.308026519 29.089040627 15.653734485 56.419363766 28.317409259 16.974936074 56.401423352 27.813297267 18.379900903 
56.338657848 27.447121369 19.802415204 56.203815764 27.386560996 21.249601183 56.044396993 27.443072093 22.697830218 
55.870463974 27.707176659 24.135599898 55.709876226 27.995424885 25.583826536 55.556410949 28.409285661 27.009492468 
55.417588062 28.852286902 28.435990853 55.290295937 29.341034123 29.852436667 55.196716653 29.820592773 31.274588884 
55.18067549 30.423621128 32.650548613 55.223787863 31.114801331 33.984647592 55.291911312 31.921090954 35.244626035 
55.361261044 32.883904382 36.387434448 55.407792764 33.891575321 37.47102214 55.415267818 34.997338476 38.465974036 
55.386690611 36.208436977 39.310966768 55.405527241 37.43768406 40.127559971 55.353274587 38.819959461 40.660117891 
[...]
POINT_DATA 1101
FIELD FieldData 21
Circ_Strain_Pt 1 1101 double
0.99855564056 0.99778448788 0.99843842861 0.99882675415 0.99723863234 0.99823484785 0.99709231059 0.99821319765 0.99812123093 
0.99834513212 0.99924212927 0.99857497116 0.99954693264 0.99942875068 0.99958756637 0.99980153306 0.99943756506 0.99961027476 
0.99879065299 0.99912986737 0.99787628333 0.99819854418 0.99648494403 0.99687968744 0.99599765626 0.99592363289 0.99594983615 
0.99563673205 0.99675574975 0.99614380134 0.99765227107 0.99700281209 0.99737428886 0.99669427545 0.99699413005 0.99617714123 
0.99595009514 0.99513976346 0.9947962675 0.99422348972 0.9955736164 0.99531815098 0.99649492699 0.99673704627 0.99802388985 
0.99799094964 0.99942432959 0.9990958113 0.99939637463 0.99924320474 0.99936841968 0.99911389362 0.99876587416 0.99876278729 
0.99806479787 0.99832746608 0.99736832342 0.99758010858 0.99667527856 0.99700526639 0.99634341723 0.99680523253 0.99687788068 
0.99737226936 0.99741857662 0.99783836034 0.99797621165 0.99808746826 0.99803961523 0.99813633852 0.997654541 0.99769450916 
0.99795713704 0.99823328059 0.99797469399 0.99862455829 0.99700906794 0.99818420293 0.99746869238 0.99826497591 0.9982982693 
0.99905070372 0.99812484146 0.99872224935 0.99861793983 0.99872113378 0.9992084893 0.99894621001 0.9995896259 0.99889752585 
0.99895083183 0.99879577409 0.99860246414 0.99862105892 0.99885326646 0.9984706966 0.99833072612 0.99799848005 0.99775616462 
0.99779497999 0.99738675745 0.9984457256 0.997728476 0.99876220065 0.99831061831 0.99891356424 0.99566052382 0.99784996627 
0.99300109379 0.99557123631 0.99032821824 0.99343074546 0.99399852828 0.99499374321 0.99855813875 0.99826872285 0.99807959122 
0.99893842725 0.99815624552 0.99928777286 0.99885919331 0.99943186812 0.99885297999 0.99926934548 0.99898608697 0.99903208406 
0.99747244315 0.99830579048 0.99005379788 0.99446829986 0.98994972407 0.99537272361 0.99285361778 0.99572064822 0.99358851139 
0.99572818386 0.99350546513 0.99676780632 0.99601758086 0.99821406605 0.99464210876 0.99761285982 0.99486138905 0.99701494128 
0.99612608124 0.99687348 0.99727968629 0.99690673102 0.99554397622 0.99741659911 0.99592599106 0.99809752756 0.99664842511 
0.99881156672 0.997141813 0.99876660735 0.99816902505 0.9988726849 0.99844612834 0.99818637536 0.99859555738 0.99809150091 
0.99866821485 0.99887063862 0.99890674643 0.99915606126 0.99931688617 0.99928964755 0.99962917146 0.99937127895 0.99970486558 
0.99966225151 0.99904698587 0.99925426256 0.9988629588 0.99836682966 0.99907667382 0.99725486968 0.9955122567 0.99538985193 
0.99211718084 0.9937156206 0.99280221193 0.9952021498 0.99381542176 0.9950341654 0.99516026623 0.99242708983 0.99181695552 
0.99171947589 0.99049718032 0.9913461113 0.99218866434 0.99151605045 0.99671191947 0.9945182007 0.99849314606 0.99834018444 
0.99714718417 0.99886768493 0.99547768708 0.99870748244 0.99570087737 0.99918369798 0.99826932297 0.9997660654 0.99827836827 
0.99936072898 0.99889892713 0.9997074866 0.99667713112 0.99927415432 0.9953768368 0.99886314357 0.99724829095 0.99929019054 
0.99880163067 0.99886182649 0.99897888324 0.998991792 0.99897284802 0.99921187396 0.99965246652 0.99936937638 0.99862310067 
0.99769213225 0.99709706027 0.99657611356 0.99638674907 0.99639004689 0.99634234499 0.99687677059 0.99657171852 0.99531847005 
0.99558359385 0.99609019029 0.99666575272 0.99772770154 0.99840842725 0.99899065836 0.99943829309 0.99933656484 0.99912545034 
0.99843833264 0.99732033146 0.996903678 0.99695790219 0.99739295002 0.99723811399 0.99694481412 0.99697210289 0.99765628472 
0.99827356905 0.99820430634 0.99807500204 0.99789886764 0.9976086726 0.9978514453 0.99858015522 0.99880084335 0.99898618667 
0.99867779216 0.99881697267 0.9985643219 0.99929921552 0.99921429279 0.99951659411 0.99926946798 0.99825810868 0.99681929331 
0.99484093163 0.99435270963 0.9947870592 0.99673418746 0.99834423478 0.99899965672 0.99919888567 0.99930894973 0.99660044532 
0.99712393758 0.99711262277 0.99792652915 0.99823560414 0.99859178729 0.99830353461 0.99711463046 0.99572903951 0.9962906986 
0.99754722838 0.99858485017 0.99926975841 0.99939922759 0.99891602418 0.9981583803 0.9976484148 0.99845559036 0.99890305243 
0.99933218603 0.99947219884 0.99964753386 0.99964716306 0.99908796524 0.99742726492 0.9950253419 0.99341146866 0.99458322438 
0.99530666104 0.99565382046 0.99574200092 0.99593544724 0.99533268273 0.99429026819 0.99742541728 0.99865593026 0.99928833495 
0.99942726462 0.99971500247 0.99991128764 0.99981010688 0.99949757852 0.99892712753 0.99864342784 0.99825062034 0.99761847458 
0.99941505352 0.99895180287 0.99964625967 0.99932570498 0.99894046608 0.99909065102 0.99936898964 0.99942130944 0.99885922752 
0.99809263269 0.99636449595 0.99439394603 0.99498367459 0.99504155565 0.99581527209 0.99588205278 0.99534135488 0.9951172921 
0.99529731791 0.99562449852 0.99689772559 0.99810269301 0.99917285466 0.99953278748 0.99938583823 0.99876426418 0.9983458843 
0.9981343836 0.9981060545 0.99834552821 0.9976468988 0.9954716657 0.99496496542 0.99589823301 0.99693320732 0.99785718492 
0.99864455702 0.9987841657 0.99649480443 0.9935532502 0.99637286407 0.99801569655 0.99853080568 0.99808760651 0.99765652852 
0.9979999457 0.9984165004 0.99926550688 0.99946040705 0.99966247136 0.99851748496 0.99736847266 0.99590821215 0.99485353195 
0.99362657565 0.99454426245 0.9958709281 0.9968820206 0.99857466785 0.99883096122 0.99899823646 0.99891882648 0.99935692582 
0.99980923982 0.99712578072 0.99666739968 0.99785570655 0.99814340687 0.99783550693 0.99673392496 0.99629110389 0.99742154067 
0.99796750316 0.99767373106 0.99788642924 0.99849206576 0.99868958122 0.99872706709 0.99859185712 0.99746714401 0.99664963692 
0.99689195316 0.99801425735 0.99943306254 0.99885356176 0.99863141553 0.99850996054 0.99790921417 0.9992998783 0.99643645224 
0.99561488798 0.99595783106 0.99704347441 0.99795702131 0.99663689332 0.99578043643 0.99553550386 0.99614822557 0.99947681979 
0.9996243451 0.99970625596 0.9997947265 0.99966504878 0.99920908399 0.99878071616 0.9983172199 0.99833305125 0.99854434676 
0.9977940315 0.9969682881 0.99912020581 0.9998368927 0.99974780821 0.99976794876 0.99959230964 0.99971926208 0.99883088767 
0.99750937156 0.99599985542 0.99443974165 0.99262132937 0.99264785191 0.9949211597 0.99788584526 0.99790539825 0.99843991666 
0.99830971918 0.99863473854 0.99891743464 0.99940166263 0.99937649397 0.99886264161 0.99872239779 0.99896743206 0.99925999376 
0.99862614966 0.99809536431 0.99808807333 0.99648554719 0.99419982448 0.99333010022 0.99222001853 0.9947999075 0.99585707889 
0.99583550711 0.99632653657 0.9974384203 0.99848695998 0.99925848731 0.99964723818 0.99972134998 0.99971322048 0.99969228627 
0.99966225746 0.99954903131 0.99938647964 0.99920706059 0.99579043338 0.9955191783 0.99610469425 0.99604636196 0.99480406022 
0.99436593452 0.99466295947 0.9959574592 0.99724336091 0.99751956528 0.9946096863 0.99691749941 0.99373553743 0.9977224318 
0.9986409197 0.99925444549 0.99938263028 0.99960102152 0.99978684059 0.99976601181 0.9997745816 0.99971687925 0.99962942877 
0.99930513573 0.99154730402 0.9921932202 0.99825330429 0.99793370063 0.99266966214 0.99445738581 0.9997742528 0.99968190299 
0.99966575579 0.99942513488 0.99883604288 0.99774161834 0.9970777377 0.99726556414 0.99830508577 0.9970540049 0.99721056339 
0.99626994964 0.9957768269 0.99799826794 0.99969614927 0.99981811693 0.99966938194 0.99925140412 0.99901231616 0.998674217 
0.9982065618 0.99796890895 0.99778670472 0.99645683024 0.99612776833 0.99673625933 0.9971409914 0.99785641121 0.99839684092 
0.9986310909 0.99827386728 0.99742721608 0.99658644665 0.99818403353 0.99846008421 0.99788095408 0.99868217394 0.9990060602 
0.99928517573 0.99945005363 0.99901134844 0.99834515557 0.99669523578 0.99698743162 0.99829159198 0.99868651835 0.99908372352 
0.9994617744 0.99945043437 0.99988388889 0.99955629462 0.9998419636 0.99980419125 0.99696268696 0.99726200831 0.99820044667 
0.99755314119 0.99883343962 0.99808547959 0.99679746057 0.99451998047 0.99282253683 0.99215400814 0.99332417766 0.99566964861 
0.99797234533 0.99780265026 0.99737884804 0.99732423967 0.9976030266 0.99762467771 0.99766065726 0.99770198884 0.99819925319 
0.99885112139 0.99921198659 0.99920051664 0.99895570209 0.99910367767 0.99849809048 0.99780039327 0.99738630898 0.99554863687 
0.99386936021 0.99215065955 0.99069827216 0.98873157302 0.98864035632 0.98972836746 0.99126945756 0.99150676934 0.99167870221 
0.99280549136 0.99372324635 0.99497436422 0.99673844067 0.99803435277 0.99894202669 0.99931076827 0.99945907583 0.9995990321 
0.99964176461 0.99960660181 0.99963741814 0.99963887642 0.99946825621 0.99893265667 0.99767068326 0.99503314797 0.99482983952 
0.99489823728 0.99432865441 0.99445787446 0.99445875531 0.9956538342 0.99600016514 0.99501162435 0.99415257433 0.99354358054 
0.99357413242 0.99604847466 0.99620650067 0.99679625865 0.9972003018 0.99769765129 0.99833422487 0.99962260372 0.99919225087 
0.99964051446 0.99984735997 0.99974811567 0.99969437787 0.99965508112 0.9998366052 0.99915886484 0.99970289882 0.99961273643 
0.99921418309 0.99784242039 0.99675249858 0.99600641015 0.99594335383 0.99639926623 0.99777267724 0.99490178767 0.99818279504 
0.9978658811 0.9969748974 0.99745106831 0.99555622781 0.99461652061 0.99572465191 0.99602152358 0.99774977351 0.99929116071 
0.99969140705 0.99962330728 0.9994059528 0.99933092424 0.99850932056 0.99909052649 0.99816089742 0.99763463454 0.99689903947 
0.99599628607 0.99544072328 0.99568871813 0.99695313861 0.99748698371 0.99807571493 0.99845044686 0.99866929589 0.99892350115 
0.99887235914 0.99882721716 0.99822530379 0.99835827904 0.9986606117 0.99862452929 0.99852911873 0.99878303655 0.99775842542 
0.99897314174 0.99651346093 0.99658472574 0.99701926987 0.99744728984 0.99809124811 0.99864604736 0.99975555358 0.99972563916 
0.99981399099 0.99965490404 0.99966496967 0.99961726063 0.99955685218 0.99912886133 0.9990205339 0.99903054949 0.99945944649 
0.99936957415 0.99980853214 0.99965372588 0.99955142213 0.9989878154 0.99824006026 0.99710810314 0.99578478211 0.99512485682 
0.99491079317 0.99476488912 0.99565435885 0.99280321155 0.99404454829 0.99566247337 0.99679191382 0.99335459497 0.99108124403 
0.98995468817 0.99102105814 0.99296080071 0.99516374698 0.99670522996 0.99374612954 0.99742462087 0.99667336556 0.99434263643 
0.99712935131 0.99747123447 0.99788924713 0.99827068335 0.99869023994 0.99921797204 0.99945325286 0.99911644588 0.99887387517 
0.99904278915 0.99918595979 0.9987936639 0.99730628578 0.99657432542 0.99677278207 0.99426118024 0.99011291266 0.98819634715 
0.98841392474 0.98924286457 0.99091255067 0.99256675762 0.99366735487 0.99463087737 0.99480140304 0.99526508256 0.99564611586 
0.99611150935 0.9969302033 0.99813678103 0.99913206074 0.99968682824 0.99970792094 0.9996139894 0.99954962686 0.99954330885 
0.99917781625 0.99882583298 0.99882684783 0.99866254635 0.99794893578 0.99702730998 0.99613838284 0.99510871356 0.99470632426 
0.99559761136 0.99627050508 0.99494035849 0.99401019315 0.99351426762 0.99307608761 0.99311169272 0.99436143559 0.9961795701 
0.99780144509 0.99847613937 0.99919785923 0.99988790232 0.99990449343 0.99984478551 0.9998641182 0.99908312065 0.99989593476 
0.99103389978 0.99467180175 0.99098709584 0.99667132137 0.99817070717 0.99943966596 0.99938855742 0.99941315284 0.99934306086 
0.99948288811 0.99951840217 0.9996348341 0.99931727529 0.99952524262 0.99922995433 0.99869649636 0.99796079007 0.99694173011 
0.99688286657 0.99723896707 0.99639311115 0.99514138391 0.99429395954 0.99450946109 0.99674073399 0.99860264872 0.99858301273 
0.99904843016 0.9984471052 0.9989819129 0.99901351771 0.99956599754 0.99976304332 0.99953920627 0.99913980639 0.99900836209 
0.99883514122 0.99880216714 0.99878233071 0.99816036367 0.99846423549 0.99755763054 0.99797175966 0.99784260921 0.99826318418 
0.9980045584 0.99772101151 0.99750217392 0.99797117211 0.99888501036 0.99931516798 0.99965029171 0.99966595277 0.99982972755 
0.99937564406 0.99955512584 0.99926726994 0.99923457676 0.99958660196 0.99924611787 0.99896136277 0.99781469001 0.9972220177 
0.9966586797 0.9962267725 0.99498623753 0.99444187839 0.99477366528 0.9952872424 0.99578612706 0.99858164426 0.99670481214 
0.99945421671 0.99796274882 0.99902622403 0.99946150174 0.99970194735 0.99982830796 0.99994161946 0.99983992643 0.99980237364 
0.9998157054 0.99938033582 0.99822891235 0.99778509083 0.99704326598 0.99644205535 0.9975542962 0.99688461894 0.99785396042 
0.99754499675 0.99820548612 0.998577991 0.99863277378 0.99876588309 0.99890034147 0.99934432962 0.99958271979 0.99122367411 
0.99422215452 0.99259637594 0.99632339153 0.99784419166 0.99895232087 0.99947271831 0.99979255553 0.99990428651 0.99883680069 
0.9978710496 0.99677448182 0.99550982593 0.99483989261 0.99470225696 0.99521381511 0.99565168476 0.99518373342 0.99418760208 
0.99477944306 0.99273513613 0.99073583752 0.99673794716 0.9886920007 0.98627854695 0.99151389559 0.99529550044 0.99773463514 
0.99700841553 0.99675476526 0.99639259418 0.99768144991 0.99738323084 0.9981125515 0.99856527405 0.99910232342 0.99937517097 
0.99957725695 0.99968962116 0.99939934153 0.99736988736 0.99547967997 0.99375284032 0.99199027528 0.98976082977 0.98689500326 
0.97807197022 0.98804702757 0.98972237061 0.99055555624 0.99147211693 0.99266353892 0.99497378652 0.99472957565 0.99449806711 
0.99482424174 0.99587983341 0.99771403349 0.99875649531 0.99906862495 0.99940727756 0.99951234437 0.99958396257 0.99952291484 
0.99951622854 0.9996777219 0.99963036121 0.99885621105 0.99765394246 0.99724431844 0.99661169801 0.99594270227 0.99432309334 
0.99361846318 0.99556832586 0.9932668312 0.99422466614 0.99491435497 0.99452727713 0.99592951756 0.99779471572 0.99895341314 
0.99959738518 0.99962517377 0.98801786637 0.99083934485 0.97907048481 0.99026605097 0.9965542304 0.99688869096 0.99540150062 
0.99270300739 0.99560497716 0.99543794274 0.99554074449 0.99525032292 0.99584624176 0.99578147021 0.99596014797 0.9970388531 
0.99806204118 0.99878334041 0.99965240774 0.99911342588 0.99633434876 0.996878935 0.99727569603 0.99882554829 0.99990028645 
0.99966221337 0.99972819707 0.99980527742 0.99873927444 0.99540219226 0.99742474835 0.99431137708 0.99501672954 0.99560125189 
0.99689037197 0.99918582014 0.99847103262 0.99962462474 0.99975752252 0.99979106679 0.99957938497 0.99926199901 0.99883896658 
0.99566185376 0.99516658207 0.99536827076 0.98660558532 0.98709354566 0.98158784811 0.99863687787 0.99862656367 0.9965045176 
0.99674768649 0.99606426104 0.99385890257 0.99059330073 0.99016609928 0.99343567356 0.99829838662 0.99784728745 0.9936938177 
0.99526773358 0.99969097296 0.99977596729 0.99975481632 0.99985851288 0.98840408086 0.99827857845 0.99990902581 0.9945867979 
0.98949279012 0.98966400351 0.99177499181 0.98694818244 0.98602912912 0.9900013907 0.99771073076 0.99883109172 0.99924511001 
0.99958800387 0.98585953581 0.98759500748 0.98050651308 0.99345212129 0.98823372495 0.98901978256 0.9969987789 0.99651174244 
0.99677627782 0.99354280837 0.99993988482 0.99981153753 0.99964222009 0.99854567452 0.99728486416 0.99742772825 0.99661546339 
0.99688416943 0.99904431145 0.99924214757 0.9996235438 0.99972690767 0.99967584616 0.99844672338 0.9987483022 0.99939608725 
0.99713521095 0.99780852272 0.99210910156 0.97838597476 0.99661098433 0.99063962888 0.98888183244 0.99323558797 0.99162730037 
0.99414241374 0.9957535066 0.9966057882 
Circumferential 3 1101 double
0.036299166256 -0.77010933395 -0.6368783126 0.025312445985 -0.8249821029 -0.55939463495 0.0074734346683 -0.84648753651 -0.52740127047 
0.0010387970481 -0.79444150379 -0.60717680024 0.020107669009 -0.87992121396 -0.46660098751 0.015082859453 -0.89426885484 -0.44135455127 
0.025156379053 -0.93497797501 -0.34665719689 0.022294346054 -0.93912741443 -0.33870880531 0.024121380142 -0.96817121222 -0.23138193346 
0.028066245656 -0.96672280697 -0.24245100516 0.018698488382 -0.99064011773 -0.1330068259 0.033618406756 -0.98691392396 -0.15648746219 
0.0031635234011 -0.99525765388 -0.091989944027 0.023006962975 -0.99328205448 -0.10772709948 0.021993546619 -0.99734517293 -0.043915221121 
0.028220176151 -0.99643554725 -0.073590847941 0.065622674698 -0.99760693376 0.0092527129017 0.0373573482 -0.99762430541 -0.039280210098 
0.086482141311 -0.99280259747 0.066977225553 0.090394465958 -0.99273585927 0.017277234483 0.099668432874 -0.98201188291 0.14211891494 
0.12297538416 -0.98318507054 0.095399195727 0.10009698682 -0.95988654717 0.2513461355 0.13887775905 -0.9609741039 0.21872669544 
0.075531524759 -0.91233785641 0.37983980501 0.1187637944 -0.91682323579 0.36093225588 0.038816244723 -0.8524306421 0.51769907016 
0.078799727625 -0.85087059521 0.51573183883 0.00654573576 -0.77598876676 0.61790245706 0.028551390114 -0.77168053401 0.62256001601 
-0.025253044202 -0.69779205008 0.7141093816 -0.020831816819 -0.68214738259 0.73021125804 -0.055444863506 -0.61643598118 0.77787044576 
-0.053923533935 -0.58779776705 0.79862181471 -0.085496879287 -0.53480506811 0.83880888503 -0.083948402294 -0.49256082988 0.86541143425 
-0.091440266756 -0.41486408818 0.89591916942 -0.091508905953 -0.35933459169 0.91915673323 -0.093396536932 -0.28858733785 0.95239634852 
-0.092175704373 -0.22704900447 0.96872618614 -0.058834644775 -0.13812258916 0.97803529288 -0.054921850103 -0.090245849438 0.98564725808 
-0.025947371255 0.006500643031 0.99830021567 -0.018185336737 0.036661404294 0.99852691604 -0.01068011229 0.10812186108 0.98850210817 
0.0082294022756 0.11150559201 0.99018534554 0.0031649765354 0.20559275065 0.97837632772 0.034384731421 0.18375805696 0.98218963162 
0.0012041902088 0.25693725081 0.96460881869 0.026719103035 0.2271102203 0.97208349825 -0.00075659611778 0.30828175097 0.95084130967 
0.015746408227 0.2719024983 0.96167619325 -0.0096589994202 0.35514976315 0.93308523745 0.0021663151957 0.32631976327 0.94284115383 
-0.019751750975 0.40125014677 0.91464520672 -0.012340790669 0.38388430549 0.92139730466 -0.022036544897 0.46638224006 0.879567003 
-0.016462778829 0.45395122389 0.88836066076 -0.018500589015 0.54570229961 0.83208520672 -0.022856774569 0.5513814824 0.82771795177 
-0.010142853496 0.62772423285 0.77323338413 -0.023487613459 0.63552978656 0.76835496035 0.0097802673123 0.71622679977 0.68710973772 
-0.010681768903 0.70494652513 0.70220170489 0.028454658806 0.79744219793 0.59836243656 0.0046160775873 0.77025849546 0.63605651912 
0.043735395678 0.85885333537 0.50248478166 0.019265592855 0.82648624988 0.55741274205 0.05043384674 0.91442415763 0.38632320367 
0.03452295005 0.88338287729 0.46599402249 0.049344519924 0.96469533145 0.25175549967 0.045106542184 0.93443345007 0.34436764835 
0.041061579742 0.98562185898 0.1346015207 0.040198314229 0.97152701604 0.21960320276 0.028035335882 0.9966460821 0.017348065122 
0.023187994827 0.9940388618 0.097260622546 0.004901184436 0.99137565402 -0.10601066858 0.0083730596994 0.99607776608 -0.027282898746 
-0.015113949717 0.98015072509 -0.19005287803 -0.0090714222399 0.98905574637 -0.1369433298 -0.026518533577 0.96447150483 -0.25972415398 
-0.022454010782 0.97149689175 -0.2315564526 -0.0050749561723 0.93991642798 -0.33835173089 -0.022778111805 0.93442637828 -0.34902586236 
0.0031058071434 0.89430994033 -0.43938140578 -0.016730865429 0.88597105123 -0.45735495125 0.0056107322595 0.84372176954 -0.53419571493 
-0.0033086700247 0.83746328916 -0.5448940193 0.0053101297229 0.79619523984 -0.60426243469 0.0073998026302 0.80017230303 -0.59870043936 
-0.0076884401896 0.73608854 -0.6733174874 0.010525121939 0.75018220854 -0.65814054216 -0.014904857908 0.68620029121 -0.72664743534 
0.0082478806302 0.6944161529 -0.71831629136 -0.011388992605 0.65372760548 -0.75638097942 0.010998857439 0.64366693622 -0.76419938459 
-0.0027450173548 0.59852119893 -0.79895834923 0.0042891012195 0.5840232825 -0.80939537188 0.001181726116 0.52620766779 -0.8471275055 