# vtk DataFile Version 5.1
vtk output
ASCII
DATASET POLYDATA
POINTS 1100 double
54.017841339 86.729957581 39.905445099 55.36603704 86.51050828 39.152655584 55.158570982 84.921418708 39.370032 
53.763075804 85.20963968 40.134723558 56.759354718 86.313096879 38.505155279 56.641623162 84.786416622 38.718219077 
58.261832894 86.169000253 38.112373923 58.222935396 84.755408461 38.375441328 59.77213749 86.304319901 37.804570571 
59.805527208 84.884924133 38.16306933 61.289043906 86.556327131 37.60918652 61.37873282 85.040637301 37.999694871 
62.822355065 86.760184707 37.808887986 62.95446824 85.208654378 38.096809946 64.372128849 86.835440167 37.906327983 
64.542376449 85.328006395 38.14527353 65.927739023 86.855359863 37.976053316 66.126143801 85.431735591 38.175348395 
67.46291009 86.978641036 38.222088363 67.667396923 85.610434573 38.431102227 68.8400263 87.294538813 38.806253227 
69.113482549 85.899154358 38.948904796 70.115891212 87.717996045 39.593066178 70.458884942 86.274105491 39.667116557 
71.247144233 88.175871295 40.564198792 71.666128214 86.683930226 40.586256636 72.320189006 88.625585809 41.599310677 
72.820239475 87.134386578 41.560956457 73.336500693 89.067346403 42.696780417 73.91728852 87.608724649 42.611936285 
74.090446969 89.470756905 43.997608476 74.842780824 87.95927803 43.904092771 74.723001851 89.87285047 45.358158828 
75.939688141 88.177317044 45.545529349 75.19029374 90.277966351 46.789941322 76.157293391 89.036006409 47.190523325 
75.579049636 90.762664013 48.219990878 76.368895443 89.593215084 48.608370258 75.841853227 91.203641804 49.686028064 
76.401151969 89.92580876 50.075923827 75.951495257 91.58291806 51.189849219 76.359812656 90.215481856 51.585994877 
75.440148578 91.864127112 52.636199018 75.747493729 90.378854416 52.984689645 74.554511848 92.086519937 53.83684628 
74.953091348 90.630559808 54.300216017 73.380494059 92.263596342 54.848185924 73.797116274 90.844475237 55.35772758 
72.683433435 92.927248379 56.064354819 72.920632523 91.448431978 56.618376218 71.959796022 93.53758334 57.301119073 
72.062904486 92.030771846 57.840735966 71.169999872 94.065927967 58.535207503 71.195722199 92.554898133 59.046386688 
70.250438146 94.484873287 59.723219603 70.299869023 93.02345057 60.238314119 69.320798586 94.935204896 60.891492318 
69.295198877 93.442526096 61.343178357 68.354934965 95.38010273 62.018235409 68.190384501 93.805295111 62.350213015 
66.974175172 95.592599043 62.711654047 66.880886998 94.032269223 63.076515351 65.541022177 95.698962187 63.288383339 
65.455394719 94.152194582 63.607347353 64.042202684 95.672304373 63.718861195 63.980090444 94.183027664 63.981726992 
62.494859791 95.635258176 63.885136567 62.467023219 94.163690497 64.147445233 60.939258035 95.595824274 63.969405559 
60.946048411 94.123567633 64.226393873 59.380164728 95.554606315 63.972697606 59.425133912 94.055586993 64.208984119 
57.860947149 95.398552187 63.680583708 57.928031078 93.9093815 63.979614905 56.372892285 95.178884243 63.283218872 
56.471237887 93.688086799 63.624559922 54.930018722 94.875602048 62.774674392 55.091306473 93.352448009 63.105858252 
53.739094955 94.304334181 61.972600392 53.893698213 92.852940864 62.319605375 52.655992981 93.685034037 61.049832001 
52.776734839 92.297297864 61.416927592 51.76862419 93.085701411 59.91587489 51.856614301 91.739283417 60.304677649 
50.96837079 92.59790361 58.677368808 51.052684984 91.243156881 59.061469209 50.235806579 92.194097675 57.362766113 
50.291941601 90.829107059 57.752631308 49.668213068 91.960544837 55.928969622 49.702272904 90.512434294 56.330320326 
49.193780442 91.723229645 54.464715121 49.172079141 90.222925291 54.872331672 48.815988209 91.465089421 52.976499637 
48.712296427 89.913814483 53.398849984 48.646163636 91.07512097 51.475977755 48.548743864 89.529767666 51.894828555 
48.601947184 90.624957894 49.988249367 48.447739467 89.104881785 50.396173702 48.651106704 90.130046663 48.510031551 
48.4619815 88.651327858 48.909795663 48.996817938 89.593944259 47.086889207 48.74668144 88.15765728 47.467972806 
49.544007411 89.066788237 45.76202597 49.211727037 87.665806027 46.084726456 50.492205548 88.557702726 44.633206262 
50.013887137 87.117274795 44.87213605 51.298205521 87.996706053 43.42971813 50.82197647 86.566716699 43.633509061 
52.005657658 87.399733297 42.174482415 51.6567658 86.040671362 42.387831849 52.975419472 87.032962366 41.025278322 
52.6493313 85.600307852 41.227192995 78.807304382 65.352752686 47.815044403 77.232974816 65.236484374 47.649247045 
76.723685576 66.879375913 47.471173715 78.126500848 67.186989628 48.017204505 75.65864525 65.120216062 47.483449688 
75.262027455 66.62774344 47.109705655 74.120000442 64.929660979 47.161905495 73.777969341 66.381876436 46.74346046 
72.59470408 64.70749218 46.784699708 72.270672037 66.143240222 46.418331118 71.043708314 64.428664245 46.594468837 
70.760092138 65.861786838 46.09354887 69.51113256 64.117897823 46.33234705 69.250411344 65.557002423 45.732920541 
67.992667327 63.784358347 46.012248629 67.723360725 65.261303346 45.402569806 66.469803723 63.464334233 45.699212408 
66.172993037 65.019625472 45.164006111 64.890332732 63.365845051 45.673510287 64.581753834 64.915868399 45.141946531 
63.305094363 63.370402146 45.642801895 62.980668509 64.854735151 45.107559334 61.720577009 63.442938391 45.608202912 
61.382032276 64.821547574 45.129874367 60.138075038 63.553498006 45.662835785 59.80842754 64.759868593 45.296026744 
58.671081582 63.270482779 46.082119205 58.293531957 64.545852157 45.6427428 57.261388678 62.906952879 46.687908516 
56.838181554 64.321861139 46.159724089 55.919352021 62.847399652 47.533433022 55.432113478 64.259014028 46.869126932 
54.594709433 62.908019154 48.400645923 54.122306411 64.39328955 47.736647584 53.280481667 63.040592915 49.280844901 
52.890128151 64.575697127 48.709846886 52.341415441 63.4854692 50.474640675 52.032994071 64.934062416 49.995068116 
51.598322329 63.869882309 51.781083883 51.378552996 65.265974513 51.385720563 51.281143466 64.078847127 53.322269121 
51.215278306 65.588753902 52.907599481 51.244081772 64.422328094 54.852331256 51.200860514 65.940766588 54.44743636 
51.378182956 64.848003847 56.375596726 51.395307821 66.296290969 55.977493587 51.807273938 65.055165765 57.885343184 
51.743776716 66.563018421 57.503643251 52.231069214 65.246577398 59.401397443 52.130587111 66.77854971 59.02627471 
52.522292406 65.459580092 60.947146314 52.502606934 66.97889396 60.554863715 52.897901932 65.603650467 62.479304616 
52.905255358 67.159688668 62.069428296 53.344707999 65.689562816 63.999996588 53.337998559 67.370640189 63.583832824 
54.151937652 66.078731129 65.297174677 54.171030489 67.654894703 64.849696445 55.17296135 66.449540182 66.406433907 
55.20649084 67.972346438 65.964180413 56.515422916 66.713760661 67.211110953 56.460962543 68.280841445 66.821381233 
57.874728478 67.165503809 67.884900467 57.830805247 68.638484193 67.478748485 59.278988647 67.612816895 68.457915042 
59.242947146 69.0022647 68.047417368 60.770146237 67.945592044 68.888299066 60.711248145 69.290773578 68.495008334 
62.314021072 67.997511562 69.236737373 62.211424067 69.486271401 68.893076228 63.865107867 68.157261933 69.471932081 
63.745399798 69.683002186 69.148253722 65.421299276 68.426529919 69.558675242 65.300582312 69.880163449 69.280765278 
67.002402281 68.487904429 69.432710464 66.868060669 70.001443262 69.265785405 68.580467465 68.565888005 69.281170871 
68.438483458 70.079960919 69.098292995 70.151831779 68.608317023 69.070565621 69.997002286 70.125596684 68.834646959 
71.704735414 68.606217809 68.768486397 71.542386141 70.130257452 68.481131777 73.145260839 68.532160753 68.105973968 
72.913204739 70.0630451 67.73520619 74.531047105 68.486790715 67.338171836 74.229725075 69.991657528 66.896406992 
75.855613178 68.444055696 66.475596635 75.491252877 69.930184075 65.994050665 76.964998069 68.32513099 65.346595862 
76.554541839 69.832069282 64.877436499 77.86428154 68.245176375 64.059107284 77.464305474 69.742784179 63.643257994 
78.605281523 68.164836946 62.662389143 78.208481386 69.622690874 62.300403803 79.109828525 67.76567624 61.211312398 
78.771182122 69.414692716 60.878515162 79.553769285 67.535284153 59.712684934 79.239380257 69.23947087 59.412088038 
79.94384509 67.419960905 58.179939525 79.629071923 69.102302908 57.913540537 79.961350608 67.303696566 56.597000226 
79.935939008 68.946331944 56.402474129 80.052335751 67.109801814 55.02882749 80.155305003 68.73271555 54.870000837 
80.234708059 66.819357526 53.479020043 80.111204009 68.443475021 53.355925722 80.32600152 66.523266907 51.923162878 
79.981386451 68.122634809 51.864100102 80.386531878 66.225269163 50.36526234 79.810008702 67.788619992 50.424812386 
79.679474129 65.802437158 49.062691979 79.077422847 67.472111587 49.112053645 56.538667568 83.207096944 38.657759577 
54.771239145 83.264068699 39.209801261 58.220761621 83.253819273 38.284311692 59.840052258 83.367022151 38.110727738 
61.477603375 83.517427722 38.172768739 63.104466905 83.678066777 38.237228246 64.729982085 83.822288748 38.257380834 
66.3489212 83.970498926 38.2825843 67.93695468 84.17110478 38.49026939 69.476852575 84.451142273 38.931010571 
70.948373335 84.834839416 39.505107985 72.255204423 85.279382103 40.332998328 73.494059864 85.788054786 41.226037124 
74.675030968 86.338308784 42.1366952 75.701611228 86.639417836 43.341270876 76.755363831 86.710318753 44.593557418 
77.338413444 88.5967209 48.92118826 77.239483644 88.176810496 47.696550482 77.286654998 88.786594511 50.359638295 
76.97736909 88.856015342 51.894155463 76.357866533 88.945801622 53.360424546 75.517337627 89.111629797 54.861043295 
74.422438648 89.591215315 56.164815393 73.328241818 90.112116655 57.370637909 72.344008231 90.635871519 58.51524712 
71.327356001 91.121144307 59.655202925 70.330367115 91.574220428 60.786179543 69.273220472 91.97730602 61.840366237 
[...]
POINT_DATA 1100
FIELD FieldData 21
Circ_Strain_Pt 1 1100 double
0.99503859735 0.99577467937 0.99533529224 0.99366742287 0.99657505801 0.99790328265 0.99753098505 0.99773971444 0.99622466339 
0.99739069232 0.99447986899 0.9972480043 0.99582124942 0.99750398754 0.99560172506 0.99735312449 0.99440555707 0.99673782707 
0.99270137381 0.9953634154 0.99506299962 0.99601491467 0.99914641226 0.99871613761 0.99904224361 0.9984911737 0.99872183831 
0.99692368087 0.99819067641 0.99539653376 0.99856597689 0.99672633002 0.99871695029 0.9982343518 0.99837382757 0.99755716336 
0.99430039857 0.99239803703 0.98982752935 0.98984941719 0.98506799281 0.9913774444 0.97242779762 0.99040764349 0.96966179423 
0.98527679641 0.97450360697 0.98632550367 0.99019675565 0.99506671091 0.9978540447 0.99874168591 0.99808385402 0.99853382238 
0.99336798502 0.9967868248 0.99047613249 0.99459663878 0.98887976208 0.99368230132 0.99455084072 0.99660561924 0.99792008734 
0.99812929073 0.99840435575 0.99869324239 0.99855690852 0.99915186597 0.99839649131 0.99886730731 0.99778305805 0.99762464866 
0.99697275885 0.99681607734 0.99620899259 0.99589111208 0.99557876572 0.99489327595 0.99718372999 0.9961506795 0.99876841811 
0.99769996471 0.99874575004 0.99821089723 0.99900452452 0.99869316902 0.99941191061 0.99918432729 0.99927785044 0.99881562082 
0.99863644959 0.9977974844 0.99782600865 0.9969898031 0.99848876561 0.99832906964 0.99722475661 0.99873085655 0.99452840673 
0.99692362917 0.98993124806 0.99372882974 0.98713332748 0.99226370979 0.98793860139 0.9951220192 0.98904883083 0.99742388211 
0.99037040414 0.99642943231 0.99258132557 0.99579461099 0.87683560779 0.9294504431 0.98161757398 0.97288387561 0.98206527842 
0.99254089649 0.99735053891 0.9961484083 0.99774304221 0.99938940371 0.99826744613 0.99890064651 0.99886652658 0.99906768359 
0.99880615628 0.9989761638 0.99623542337 0.99766684896 0.99716797268 0.99821364819 0.99854712039 0.99897824905 0.99949207653 
0.99898076304 0.99850053404 0.9982993976 0.99617286562 0.99681671735 0.99417520965 0.99624530305 0.996020456 0.99616088914 
0.99594105435 0.99532804396 0.9947092563 0.99414533662 0.99297970786 0.99089666203 0.99214748728 0.98938215429 0.99349341315 
0.99152229037 0.99462185715 0.99561015542 0.99561741096 0.99831922336 0.99558130581 0.9988568527 0.99583762522 0.99918272672 
0.99762423411 0.99924428723 0.99790059095 0.99795354471 0.99690275178 0.99554554008 0.99185554222 0.99294086542 0.98911471051 
0.99259047915 0.99171744474 0.99582982332 0.99569603626 0.9987414133 0.99864663676 0.99868406895 0.99862364641 0.9993050518 
0.99911858038 0.99948950324 0.99838034888 0.99922820881 0.99666349296 0.99840627546 0.99681565085 0.99874031777 0.99871550007 
0.99920240231 0.99858618736 0.99748397418 0.99661483828 0.99407339684 0.99800453461 0.9960747875 0.99793834377 0.99779734603 
0.99721772797 0.99771516643 0.99702269927 0.99724793473 0.99670978179 0.9971486589 0.99643632513 0.99860187194 0.99759430933 
0.99911206081 0.99721371382 0.9986451124 0.99583240246 0.99751308484 0.99589596197 0.99652092902 0.99351566874 0.99606893287 
0.98809593735 0.9968301765 0.95863256371 0.99261797823 0.92104812713 0.98491432355 0.89743880892 0.97829403068 0.99736001965 
0.99578795972 0.99744845252 0.99675303876 0.99846962407 0.99890929393 0.99857476116 0.99790205762 0.99703610112 0.99702301124 
0.99821258945 0.99759833416 0.99494795407 0.99306568938 0.99423988921 0.99846614688 0.99365100552 0.99588802592 0.9924127114 
0.99694115169 0.9979859087 0.99729497264 0.99661455194 0.99780053117 0.99868437101 0.99903621365 0.9989748798 0.99648163981 
0.9957748297 0.99577660879 0.99609968872 0.99651257969 0.99738630938 0.99858452115 0.99920293425 0.99794935848 0.99560512576 
0.99330665765 0.99391066361 0.99514197272 0.99799034655 0.99912135631 0.99961935471 0.99958770882 0.99612524494 0.99445035385 
0.99715833077 0.99880958994 0.99685818796 0.99389350429 0.99232866266 0.99288439512 0.99431768753 0.99695122821 0.99641626256 
0.99378692122 0.99661172276 0.99641900008 0.99484974798 0.99126781503 0.99777836779 0.99890937296 0.99918495664 0.99898780333 
0.99920087059 0.99920801879 0.9992670543 0.99828519263 0.99721688445 0.99672053797 0.99377049322 0.9915088339 0.99008207409 
0.99036231805 0.99088231168 0.98762897622 0.98823258975 0.99410310449 0.99849028302 0.99913903418 0.99909414809 0.99885962985 
0.99775527025 0.99657181564 0.99468445759 0.993913807 0.99495222651 0.99853407134 0.99873259897 0.99891471977 0.99860115587 
0.9982873559 0.99785038814 0.99796044062 0.99919317208 0.99849998709 0.99639733924 0.99455675604 0.99552413332 0.99721788811 
0.9978207078 0.99652749224 0.99587743154 0.99663171336 0.99794250234 0.99818985484 0.99706785352 0.99565137379 0.99547563664 
0.99536819632 0.99300293121 0.99099280464 0.99051478457 0.99121447166 0.9964126546 0.99397439365 0.99494401906 0.99387114742 
0.99407999783 0.99604946943 0.99967431481 0.99919491312 0.99929762473 0.99934243346 0.99887747009 0.9992014442 0.99890935681 
0.99798352439 0.99738264099 0.99724133438 0.99766698811 0.99734403714 0.99723609057 0.99832875866 0.99795214132 0.99661245818 
0.9946424928 0.99378819686 0.99485751404 0.99764255469 0.99806173957 0.99842461425 0.99902296086 0.99534227321 0.99241580229 
0.99087677138 0.99560952453 0.99681240283 0.99579954362 0.99520289663 0.99379672768 0.9951500924 0.9970881974 0.99580173275 
0.99492366605 0.99491256326 0.998077993 0.99810053282 0.99721287888 0.99740119925 0.99835671198 0.99927803789 0.9992071321 
0.99821622125 0.99745813018 0.99681096521 0.9966701711 0.99770864291 0.99630825509 0.99308487182 0.99327880293 0.99510420516 
0.99686216698 0.99177549321 0.99012947352 0.9893097226 0.99387624189 0.99827649148 0.99593948742 0.99911198346 0.99915560442 
0.99859883575 0.99866211901 0.99922742607 0.99862543865 0.99851868369 0.99865953863 0.99779447044 0.99778133761 0.98353625718 
0.97822940049 0.98031283397 0.98907022161 0.98949203613 0.98776484055 0.98983110819 0.99279964193 0.99454484454 0.99629180631 
0.99866900566 0.9985669975 0.99799627795 0.99743018291 0.99652672961 0.99577133557 0.99485531902 0.99617923405 0.99807833652 
0.99885887893 0.99867818903 0.99849129572 0.99852833274 0.99923392643 0.99903068788 0.9965986657 0.99335672127 0.99529970386 
0.99690023329 0.99636628427 0.99593410161 0.99552572916 0.99622183754 0.99725963629 0.99727572657 0.9969615102 0.99595705138 
0.99520773749 0.9952962051 0.99529328123 0.99543463053 0.9958491299 0.9950600062 0.99526427433 0.99405057993 0.99619926065 
0.99766227072 0.99967147242 0.99916934198 0.99887648804 0.99926418145 0.99901392393 0.99843305082 0.99733886089 0.99722700567 
0.99731177584 0.99747306724 0.99720553463 0.99666934616 0.99684384496 0.99697974444 0.99490308756 0.99364117374 0.99408891637 
0.99556051738 0.99747942807 0.9977757362 0.99797135518 0.9971810819 0.99340218482 0.99230447614 0.99713436709 0.99622201988 
0.99325896373 0.99156846363 0.99385224021 0.99715606867 0.99756974847 0.99676434339 0.99515593329 0.99354781847 0.99467627796 
0.99491683069 0.9962603117 0.99775517723 0.99677855334 0.9982774632 0.99866277585 0.99711378009 0.99581396275 0.99591699948 
0.99664573951 0.99851279717 0.99758043637 0.99696585999 0.99629355697 0.99457198321 0.99556405636 0.99496931741 0.98814184593 
0.98844821282 0.99051233651 0.99054718762 0.99601307542 0.99888783173 0.99912314727 0.99877477699 0.99733726634 0.99951599893 
0.99871198891 0.99912981009 0.99773309325 0.99760214674 0.99799382095 0.99749234342 0.99778310949 0.99851750653 0.99950915614 
0.99667857478 0.9858473713 0.95656738959 0.95900926671 0.97621501091 0.99159119759 0.99317240783 0.98971281842 0.9959264415 
0.99644719801 0.99533653427 0.99583504015 0.99770485513 0.99743823865 0.99745684899 0.99768208796 0.99669010263 0.99536335217 
0.99703372991 0.99780842692 0.99788376868 0.99820761601 0.99911184077 0.99870825062 0.99705786334 0.99476742117 0.99314642918 
0.99171870215 0.99579768519 0.99609159679 0.99355552379 0.99244849915 0.99631510893 0.99770120179 0.99875242393 0.99782982975 
0.99649863076 0.99522442265 0.99437362267 0.99424765028 0.99481303539 0.99596466886 0.99605430219 0.99602891819 0.99635689158 
0.99711171851 0.99013816117 0.99118632188 0.99825696637 0.99905369855 0.99878538745 0.99872745323 0.99832592133 0.99844790401 
0.99826122032 0.99879422896 0.99900034758 0.99933989892 0.99956142247 0.9993446788 0.99822775215 0.99653160004 0.99706479518 
0.99813865426 0.99759008572 0.9969797358 0.99786527012 0.99797096929 0.99615021175 0.99457480348 0.99282936582 0.99301638358 
0.99424747417 0.99708926998 0.99821055173 0.99767683696 0.99571408409 0.99594484426 0.99831512626 0.99800049816 0.99274790257 
0.98998995125 0.99092144238 0.99395166705 0.99614884515 0.99832725275 0.99536913714 0.9920692052 0.99247016005 0.99500829677 
0.99406744074 0.99606215076 0.99680179192 0.99737984953 0.99671001623 0.99648901235 0.99725600918 0.99870212924 0.99861914813 
0.99773284127 0.99568898987 0.9962938597 0.99765753577 0.99828963457 0.99534142998 0.99475154473 0.99436745166 0.99493264264 
0.99050019734 0.99293731161 0.99153611689 0.98821167854 0.99085578253 0.99301229437 0.99748827638 0.99738228701 0.99703580301 
0.99814558281 0.99856969548 0.99815109651 0.99795965337 0.9983159233 0.99748703839 0.99735178815 0.99772877035 0.99873331796 
0.99878408306 0.9985742493 0.99792125293 0.99659133866 0.99563177029 0.99698353005 0.99793345083 0.99768077521 0.99741217126 
0.99771055665 0.99787014504 0.99750405909 0.99545749799 0.99264925845 0.99339470838 0.99637415647 0.99754464013 0.99700081836 
0.99394148137 0.99608744155 0.99332150482 0.99890822359 0.99730000898 0.99354377275 0.98757652149 0.98811994716 0.99416822647 
0.99673955147 0.99490448513 0.99352872184 0.99257498074 0.99234664258 0.9928448003 0.99530527056 0.99597441446 0.99739102167 
0.99505153579 0.99860621191 0.9974776185 0.99072793812 0.992087726 0.98997568267 0.9887067965 0.99293876466 0.9972176664 
0.99703104825 0.99559550783 0.99601206446 0.99591078422 0.99775032928 0.99782733763 0.99766942998 0.99553631769 0.99427471895 
0.99373967735 0.99495099523 0.99517046485 0.99654257722 0.99716855299 0.99812331781 0.99908185486 0.99751185155 0.99548777613 
0.9939029811 0.99684550802 0.99841338502 0.99719518919 0.992673753 0.99144674713 0.99222637212 0.99558619334 0.99723821369 
0.99710675191 0.99574728929 0.99476922953 0.99222043416 0.99218573849 0.99552993828 0.99784481659 0.99710673236 0.99713395545 
0.99725170602 0.99892512309 0.99917146629 0.9994427029 0.9991285197 0.9980405457 0.99788757338 0.99819670256 0.9980502196 
0.99829129545 0.99883030855 0.99822956732 0.99604565388 0.98852424696 0.97449448353 0.95795055432 0.97544817898 0.98826593629 
0.99019483293 0.98922537454 0.98794294308 0.99187331146 0.98839516472 0.99758787301 0.99751547295 0.99770444309 0.99804052855 
0.99842388871 0.99873721293 0.99800682637 0.99741414892 0.9972269863 0.9956954794 0.99550098365 0.9956342161 0.99652466777 
0.99806397633 0.99361795175 0.99449954738 0.9938068556 0.98914645974 0.99241658276 0.98840981115 0.99065594093 0.99317158587 
0.99780418878 0.99046010123 0.99309782046 0.99542257366 0.99728602381 0.99759653658 0.99653115884 0.99511369016 0.99577517338 
0.99699452218 0.99847814667 0.99756535315 0.99513273547 0.99303135418 0.99481475365 0.99631806812 0.99587024927 0.99643868498 
0.9971481104 0.99733971685 0.99677183703 0.99586839179 0.99632888341 0.99767203272 0.99356585517 0.99154853094 0.99193142456 
0.99497577675 0.99671703448 0.99721664951 0.99771168967 0.99787662081 0.99669550082 0.99254132085 0.99088114533 0.99741710164 
0.99805487922 0.99832985548 0.99821966829 0.99800483053 0.99795991395 0.99882957402 0.99920850086 0.99857092322 0.99807421022 
0.9977113194 0.99832401619 0.99897912769 0.99954460799 0.99881007812 0.99595200136 0.98845734146 0.97395749871 0.96495331756 
0.96292671191 0.97454833686 0.99298565741 0.99570116337 0.98696138916 0.98712504395 0.98879019853 0.98841419184 0.99570355362 
0.998165834 0.99906082873 0.99824924814 0.9991699403 0.99784025267 0.99750998074 0.9972621098 0.99781975758 0.99840706252 
0.99835405415 0.99843246225 0.99717594275 0.99568687874 0.99566211002 0.9970710968 0.99766242525 0.99753468019 0.99770747047 
0.99806495683 0.99798191327 0.99568572368 0.99318597783 0.99258614447 0.99339266579 0.99513759942 0.99643957947 0.99666753674 
0.99370998166 0.99405160398 0.99478358329 0.99420561384 0.99264310112 0.99080247513 0.99523650411 0.99869230275 0.99403634471 
0.98747568447 0.98777180283 0.98866175573 0.99220561883 0.99442462442 0.99506604645 0.99357840263 0.99266090525 0.9924451473 
0.99256346274 0.99271671125 0.99272013793 0.99627693613 0.99758988096 0.99706078281 0.99763229463 0.99777747523 0.99790050327 
0.99417417078 0.98976850296 0.99688201105 0.98489342692 0.99675208001 0.98762076386 0.99739300666 0.99797104953 0.99844311884 
0.99820215566 0.99763031381 0.99775006177 0.99789709419 0.99845827288 0.9991941104 0.99886782132 0.99847039435 0.99836617424 
0.99847742178 0.99810913586 0.99768802657 0.99839198803 0.99730480423 0.9970346397 0.99698971519 0.99681356103 0.99700773173 
0.99725648079 0.99509974465 0.99596208949 0.99543798202 0.99649070614 0.99220462093 0.99170608391 0.9889607783 0.99036976343 
0.99219205102 0.99536794578 0.9990409021 0.99769729588 0.99627352768 0.99571661658 0.99620840554 0.99731504874 0.995627155 
0.99369022436 0.99277444707 0.99480771092 0.99733329602 0.99696018353 0.99703259798 0.99833079494 0.99682783067 0.99559287333 
0.99545022475 0.99306894725 0.99376042297 0.99623235628 0.99412079421 0.99331762749 0.99491046911 0.99727826446 0.99693168687 
0.99735895108 0.99789805291 0.99829983064 0.99850287769 0.99924485523 0.99934486114 0.9994313659 0.99931888296 0.99905709028 
0.99887333187 0.99878053141 0.99785005739 0.99798165294 0.96961446811 0.97471193968 0.98035190721 0.98927400813 0.98790083368 
0.99156228503 0.98379520858 0.98598469861 0.99777664513 0.99840849352 0.99864723034 0.99879987863 0.99781343169 0.997370148 
0.99696117198 0.99648998743 0.99575799974 0.99505374948 0.99679461464 0.99799683425 0.99771489362 0.99683677424 0.99543165474 
0.99375325356 0.99390422035 0.99571371647 0.99523377744 0.99482437274 0.99419268156 0.99398182725 0.99491554527 0.99556600157 
0.9956290835 0.99542907385 0.99799593979 0.99873287049 0.99899437095 0.99808014686 0.99498135275 0.99217967676 0.99112818077 
0.99297946316 0.99316038693 0.99267507848 0.99141571657 0.99897207029 0.99879135617 0.99930873377 0.99917260038 0.99856011409 
0.99790733509 0.98240936215 0.9856358602 0.99846790968 0.99814316038 0.99792367539 0.9981594218 0.99850895476 0.99742017306 
0.99839501622 0.99824419814 0.99837309732 0.98901399558 0.99518137157 0.99803990763 0.9993801786 0.99492471992 0.99761390332 
0.99583630395 0.99637829364 0.99605500687 0.99656459356 0.9953126769 0.99236344234 0.99387965019 0.99648882587 0.99718675921 
0.99755313113 0.99737430849 0.99638108492 0.99190367885 0.99562728792 0.99017808336 0.99238407854 0.99624365207 0.99557297717 
0.99504188945 0.99675303481 0.99824136641 0.9974963567 0.99825331975 0.9977125026 0.99541594045 0.99483843268 0.99544217107 
0.99578465287 0.99706015602 0.99776322891 0.99751876001 0.99733056683 0.99656486637 0.99622581858 0.99295883582 0.99109743707 
0.99230122197 0.99655305277 0.99482419252 0.99507515022 0.99549404678 0.99568256272 0.99606696355 0.9917799661 0.98878249597 
0.99422307583 0.99301057159 0.99132458662 0.99316154434 0.99595728941 0.99753207134 0.99754110466 0.99878264759 0.98593163254 
0.98966112177 0.98816869703 
Circumferential 3 1100 double
0.8074868768 -0.061647102428 -0.58665541723 0.88386260367 -0.022067676366 -0.44621696977 0.90393634885 -0.03206835001 -0.40851626497 
0.83365500202 -0.068508893285 -0.54195446513 0.94509853552 0.019222491141 -0.31940912994 0.95737508225 0.0049289676038 -0.28412912406 
0.96970780173 0.064651337861 -0.22557688241 0.97744040973 0.066391885416 -0.18202027121 0.98137196712 0.11748998745 -0.10391116421 
0.98565773484 0.12497945189 -0.088550389902 0.98604180225 0.1651394264 0.014369037115 0.98522715013 0.1709130282 -0.0087156450703 
0.98448323764 0.16739421083 0.047915943176 0.98433660529 0.17585191003 0.0053374126531 0.9782445215 0.18724094259 0.082378389224 
0.98158084097 0.18672991447 0.026650420255 0.96301734464 0.2150522721 0.1388336716 0.97537572307 0.19625170783 0.091168968573 
0.91124692447 0.2310071298 0.31936783038 0.92852644266 0.23245246399 0.26345182984 0.8468544961 0.22467772326 0.46805934119 
0.87103308701 0.25187810363 0.41186319608 0.77742398733 0.20973629798 0.59216508395 0.80656260568 0.25704881193 0.5304291767 
0.7237441512 0.22513555769 0.64963127001 0.76341260037 0.25158953279 0.59264340154 0.65058389503 0.23651868699 0.7162629258 
0.7027889806 0.25176385292 0.66121815464 0.55843690748 0.24398746593 0.7918277725 0.60871555052 0.26081305083 0.74622118868 
0.44632045074 0.23652218149 0.8572927487 0.48403674204 0.2585797409 0.82938256056 0.34698783191 0.24336363041 0.90413014613 
0.35872880233 0.26946717726 0.8910773127 0.27151488406 0.2759015069 0.92151735539 0.24283956236 0.26877803785 0.93089712752 
0.1732855448 0.28839644419 0.93904537768 0.10291048656 0.24800696686 0.95825702839 0.012935551524 0.26747838282 0.95050023617 
-0.075246782832 0.230412589 0.95807875113 -0.21531229968 0.21213165245 0.95052990683 -0.28498217243 0.20791863369 0.93521604602 
-0.49734643756 0.15794621106 0.82679294336 -0.45578584113 0.18344694539 0.85835376685 -0.58333798483 0.13954412998 0.79782869497 
-0.59072505461 0.13301891075 0.79359056818 -0.51828365292 0.14871222688 0.84188443691 -0.55402604462 0.12220107044 0.82301886966 
-0.46403644058 0.18102112968 0.86606518991 -0.51948013787 0.1475294618 0.84130930053 -0.48388408026 0.18997431278 0.85223853853 
-0.53144953896 0.13442909727 0.83558214643 -0.55075117211 0.17819703577 0.81516001478 -0.57106831701 0.10654656707 0.81334575592 
-0.58296623894 0.15451067318 0.79726465028 -0.61419405461 0.094692288406 0.78307588506 -0.68262381032 0.11491550477 0.70658838551 
-0.71715528707 0.045511256544 0.68200261058 -0.80611324349 0.066408703994 0.58464454168 -0.82500360009 -0.0055427212863 0.55752962114 
-0.88801150969 -0.01470417184 0.43603871453 -0.89752586957 -0.035550527393 0.42516351918 -0.94861926951 -0.057886887824 0.29703964629 
-0.9485660657 -0.068047161172 0.29514103578 -0.98254277952 -0.053530215865 0.17008112686 -0.97850858445 -0.10596721533 0.17572281214 
-0.98962813722 -0.090472631125 0.09327932513 -0.98651781049 -0.11869468527 0.097415233247 -0.9900064912 -0.11852116855 0.0053441355446 
-0.98914621357 -0.13171506826 0.013126338789 -0.98487504998 -0.12290142767 -0.11189109756 -0.98457985083 -0.1544298047 -0.078279072344 
-0.95712282221 -0.16466354344 -0.22041790712 -0.95865921371 -0.17415982273 -0.20368706886 -0.91247430833 -0.19377219373 -0.3437391104 
-0.91279723507 -0.18987758916 -0.34176284701 -0.84358645113 -0.19072969823 -0.49563247201 -0.83954008282 -0.20747387496 -0.49456518813 
-0.73543569542 -0.20850352917 -0.62913776725 -0.74976871961 -0.22213867057 -0.61269098402 -0.62528435885 -0.2282438976 -0.74370406581 
-0.6535997145 -0.23610229285 -0.71710799968 -0.5353002002 -0.24039311375 -0.80609153264 -0.5705877569 -0.23949345436 -0.78210532708 
-0.4638964816 -0.25568402095 -0.84668003366 -0.49242162213 -0.25379447277 -0.83093952546 -0.40430412582 -0.27213944853 -0.87295913795 
-0.41957902678 -0.25904766034 -0.86972143302 -0.33963632788 -0.27497000656 -0.89826138067 -0.35407730328 -0.25820311823 -0.89782072945 
-0.24826346097 -0.24342411317 -0.93292805191 -0.27921994452 -0.25084101511 -0.92412904458 -0.14023203159 -0.19893879304 -0.9690777761 
-0.1932012568 -0.23748470263 -0.95025199019 -0.053139392693 -0.2434387945 -0.96609471963 -0.09053070985 -0.22926860718 -0.96717956477 
0.050819297597 -0.25236363913 -0.96215257373 0.0047162391526 -0.22616975996 -0.97234389013 0.16731606222 -0.23484222491 -0.95749744918 
0.12605382771 -0.20408379355 -0.96905125454 0.35816281533 -0.23027266801 -0.88957336086 0.31028565413 -0.20540000543 -0.91577920958 